<?xml version="1.0"?>
<VTKFile type="UnstructuredGrid"  version="0.1"  >
<UnstructuredGrid>
<Piece  NumberOfPoints="1089" NumberOfCells="2048">
<Points>
<DataArray  type="Float64"  NumberOfComponents="3"  format="ascii">0 0 0  0.03125 0 0  0.0625 0 0  0.09375 0 0  0.125 0 0  0.15625 0 0  0.1875 0 0  0.21875 0 0  0.25 0 0  0.28125 0 0  0.3125 0 0  0.34375 0 0  0.375 0 0  0.40625 0 0  0.4375 0 0  0.46875 0 0  0.5 0 0  0.53125 0 0  0.5625 0 0  0.59375 0 0  0.625 0 0  0.65625 0 0  0.6875 0 0  0.71875 0 0  0.75 0 0  0.78125 0 0  0.8125 0 0  0.84375 0 0  0.875 0 0  0.90625 0 0  0.9375 0 0  0.96875 0 0  1 0 0  0 0.03125 0  0.03125 0.03125 0  0.0625 0.03125 0  0.09375 0.03125 0  0.125 0.03125 0  0.15625 0.03125 0  0.1875 0.03125 0  0.21875 0.03125 0  0.25 0.03125 0  0.28125 0.03125 0  0.3125 0.03125 0  0.34375 0.03125 0  0.375 0.03125 0  0.40625 0.03125 0  0.4375 0.03125 0  0.46875 0.03125 0  0.5 0.03125 0  0.53125 0.03125 0  0.5625 0.03125 0  0.59375 0.03125 0  0.625 0.03125 0  0.65625 0.03125 0  0.6875 0.03125 0  0.71875 0.03125 0  0.75 0.03125 0  0.78125 0.03125 0  0.8125 0.03125 0  0.84375 0.03125 0  0.875 0.03125 0  0.90625 0.03125 0  0.9375 0.03125 0  0.96875 0.03125 0  1 0.03125 0  0 0.0625 0  0.03125 0.0625 0  0.0625 0.0625 0  0.09375 0.0625 0  0.125 0.0625 0  0.15625 0.0625 0  0.1875 0.0625 0  0.21875 0.0625 0  0.25 0.0625 0  0.28125 0.0625 0  0.3125 0.0625 0  0.34375 0.0625 0  0.375 0.0625 0  0.40625 0.0625 0  0.4375 0.0625 0  0.46875 0.0625 0  0.5 0.0625 0  0.53125 0.0625 0  0.5625 0.0625 0  0.59375 0.0625 0  0.625 0.0625 0  0.65625 0.0625 0  0.6875 0.0625 0  0.71875 0.0625 0  0.75 0.0625 0  0.78125 0.0625 0  0.8125 0.0625 0  0.84375 0.0625 0  0.875 0.0625 0  0.90625 0.0625 0  0.9375 0.0625 0  0.96875 0.0625 0  1 0.0625 0  0 0.09375 0  0.03125 0.09375 0  0.0625 0.09375 0  0.09375 0.09375 0  0.125 0.09375 0  0.15625 0.09375 0  0.1875 0.09375 0  0.21875 0.09375 0  0.25 0.09375 0  0.28125 0.09375 0  0.3125 0.09375 0  0.34375 0.09375 0  0.375 0.09375 0  0.40625 0.09375 0  0.4375 0.09375 0  0.46875 0.09375 0  0.5 0.09375 0  0.53125 0.09375 0  0.5625 0.09375 0  0.59375 0.09375 0  0.625 0.09375 0  0.65625 0.09375 0  0.6875 0.09375 0  0.71875 0.09375 0  0.75 0.09375 0  0.78125 0.09375 0  0.8125 0.09375 0  0.84375 0.09375 0  0.875 0.09375 0  0.90625 0.09375 0  0.9375 0.09375 0  0.96875 0.09375 0  1 0.09375 0  0 0.125 0  0.03125 0.125 0  0.0625 0.125 0  0.09375 0.125 0  0.125 0.125 0  0.15625 0.125 0  0.1875 0.125 0  0.21875 0.125 0  0.25 0.125 0  0.28125 0.125 0  0.3125 0.125 0  0.34375 0.125 0  0.375 0.125 0  0.40625 0.125 0  0.4375 0.125 0  0.46875 0.125 0  0.5 0.125 0  0.53125 0.125 0  0.5625 0.125 0  0.59375 0.125 0  0.625 0.125 0  0.65625 0.125 0  0.6875 0.125 0  0.71875 0.125 0  0.75 0.125 0  0.78125 0.125 0  0.8125 0.125 0  0.84375 0.125 0  0.875 0.125 0  0.90625 0.125 0  0.9375 0.125 0  0.96875 0.125 0  1 0.125 0  0 0.15625 0  0.03125 0.15625 0  0.0625 0.15625 0  0.09375 0.15625 0  0.125 0.15625 0  0.15625 0.15625 0  0.1875 0.15625 0  0.21875 0.15625 0  0.25 0.15625 0  0.28125 0.15625 0  0.3125 0.15625 0  0.34375 0.15625 0  0.375 0.15625 0  0.40625 0.15625 0  0.4375 0.15625 0  0.46875 0.15625 0  0.5 0.15625 0  0.53125 0.15625 0  0.5625 0.15625 0  0.59375 0.15625 0  0.625 0.15625 0  0.65625 0.15625 0  0.6875 0.15625 0  0.71875 0.15625 0  0.75 0.15625 0  0.78125 0.15625 0  0.8125 0.15625 0  0.84375 0.15625 0  0.875 0.15625 0  0.90625 0.15625 0  0.9375 0.15625 0  0.96875 0.15625 0  1 0.15625 0  0 0.1875 0  0.03125 0.1875 0  0.0625 0.1875 0  0.09375 0.1875 0  0.125 0.1875 0  0.15625 0.1875 0  0.1875 0.1875 0  0.21875 0.1875 0  0.25 0.1875 0  0.28125 0.1875 0  0.3125 0.1875 0  0.34375 0.1875 0  0.375 0.1875 0  0.40625 0.1875 0  0.4375 0.1875 0  0.46875 0.1875 0  0.5 0.1875 0  0.53125 0.1875 0  0.5625 0.1875 0  0.59375 0.1875 0  0.625 0.1875 0  0.65625 0.1875 0  0.6875 0.1875 0  0.71875 0.1875 0  0.75 0.1875 0  0.78125 0.1875 0  0.8125 0.1875 0  0.84375 0.1875 0  0.875 0.1875 0  0.90625 0.1875 0  0.9375 0.1875 0  0.96875 0.1875 0  1 0.1875 0  0 0.21875 0  0.03125 0.21875 0  0.0625 0.21875 0  0.09375 0.21875 0  0.125 0.21875 0  0.15625 0.21875 0  0.1875 0.21875 0  0.21875 0.21875 0  0.25 0.21875 0  0.28125 0.21875 0  0.3125 0.21875 0  0.34375 0.21875 0  0.375 0.21875 0  0.40625 0.21875 0  0.4375 0.21875 0  0.46875 0.21875 0  0.5 0.21875 0  0.53125 0.21875 0  0.5625 0.21875 0  0.59375 0.21875 0  0.625 0.21875 0  0.65625 0.21875 0  0.6875 0.21875 0  0.71875 0.21875 0  0.75 0.21875 0  0.78125 0.21875 0  0.8125 0.21875 0  0.84375 0.21875 0  0.875 0.21875 0  0.90625 0.21875 0  0.9375 0.21875 0  0.96875 0.21875 0  1 0.21875 0  0 0.25 0  0.03125 0.25 0  0.0625 0.25 0  0.09375 0.25 0  0.125 0.25 0  0.15625 0.25 0  0.1875 0.25 0  0.21875 0.25 0  0.25 0.25 0  0.28125 0.25 0  0.3125 0.25 0  0.34375 0.25 0  0.375 0.25 0  0.40625 0.25 0  0.4375 0.25 0  0.46875 0.25 0  0.5 0.25 0  0.53125 0.25 0  0.5625 0.25 0  0.59375 0.25 0  0.625 0.25 0  0.65625 0.25 0  0.6875 0.25 0  0.71875 0.25 0  0.75 0.25 0  0.78125 0.25 0  0.8125 0.25 0  0.84375 0.25 0  0.875 0.25 0  0.90625 0.25 0  0.9375 0.25 0  0.96875 0.25 0  1 0.25 0  0 0.28125 0  0.03125 0.28125 0  0.0625 0.28125 0  0.09375 0.28125 0  0.125 0.28125 0  0.15625 0.28125 0  0.1875 0.28125 0  0.21875 0.28125 0  0.25 0.28125 0  0.28125 0.28125 0  0.3125 0.28125 0  0.34375 0.28125 0  0.375 0.28125 0  0.40625 0.28125 0  0.4375 0.28125 0  0.46875 0.28125 0  0.5 0.28125 0  0.53125 0.28125 0  0.5625 0.28125 0  0.59375 0.28125 0  0.625 0.28125 0  0.65625 0.28125 0  0.6875 0.28125 0  0.71875 0.28125 0  0.75 0.28125 0  0.78125 0.28125 0  0.8125 0.28125 0  0.84375 0.28125 0  0.875 0.28125 0  0.90625 0.28125 0  0.9375 0.28125 0  0.96875 0.28125 0  1 0.28125 0  0 0.3125 0  0.03125 0.3125 0  0.0625 0.3125 0  0.09375 0.3125 0  0.125 0.3125 0  0.15625 0.3125 0  0.1875 0.3125 0  0.21875 0.3125 0  0.25 0.3125 0  0.28125 0.3125 0  0.3125 0.3125 0  0.34375 0.3125 0  0.375 0.3125 0  0.40625 0.3125 0  0.4375 0.3125 0  0.46875 0.3125 0  0.5 0.3125 0  0.53125 0.3125 0  0.5625 0.3125 0  0.59375 0.3125 0  0.625 0.3125 0  0.65625 0.3125 0  0.6875 0.3125 0  0.71875 0.3125 0  0.75 0.3125 0  0.78125 0.3125 0  0.8125 0.3125 0  0.84375 0.3125 0  0.875 0.3125 0  0.90625 0.3125 0  0.9375 0.3125 0  0.96875 0.3125 0  1 0.3125 0  0 0.34375 0  0.03125 0.34375 0  0.0625 0.34375 0  0.09375 0.34375 0  0.125 0.34375 0  0.15625 0.34375 0  0.1875 0.34375 0  0.21875 0.34375 0  0.25 0.34375 0  0.28125 0.34375 0  0.3125 0.34375 0  0.34375 0.34375 0  0.375 0.34375 0  0.40625 0.34375 0  0.4375 0.34375 0  0.46875 0.34375 0  0.5 0.34375 0  0.53125 0.34375 0  0.5625 0.34375 0  0.59375 0.34375 0  0.625 0.34375 0  0.65625 0.34375 0  0.6875 0.34375 0  0.71875 0.34375 0  0.75 0.34375 0  0.78125 0.34375 0  0.8125 0.34375 0  0.84375 0.34375 0  0.875 0.34375 0  0.90625 0.34375 0  0.9375 0.34375 0  0.96875 0.34375 0  1 0.34375 0  0 0.375 0  0.03125 0.375 0  0.0625 0.375 0  0.09375 0.375 0  0.125 0.375 0  0.15625 0.375 0  0.1875 0.375 0  0.21875 0.375 0  0.25 0.375 0  0.28125 0.375 0  0.3125 0.375 0  0.34375 0.375 0  0.375 0.375 0  0.40625 0.375 0  0.4375 0.375 0  0.46875 0.375 0  0.5 0.375 0  0.53125 0.375 0  0.5625 0.375 0  0.59375 0.375 0  0.625 0.375 0  0.65625 0.375 0  0.6875 0.375 0  0.71875 0.375 0  0.75 0.375 0  0.78125 0.375 0  0.8125 0.375 0  0.84375 0.375 0  0.875 0.375 0  0.90625 0.375 0  0.9375 0.375 0  0.96875 0.375 0  1 0.375 0  0 0.40625 0  0.03125 0.40625 0  0.0625 0.40625 0  0.09375 0.40625 0  0.125 0.40625 0  0.15625 0.40625 0  0.1875 0.40625 0  0.21875 0.40625 0  0.25 0.40625 0  0.28125 0.40625 0  0.3125 0.40625 0  0.34375 0.40625 0  0.375 0.40625 0  0.40625 0.40625 0  0.4375 0.40625 0  0.46875 0.40625 0  0.5 0.40625 0  0.53125 0.40625 0  0.5625 0.40625 0  0.59375 0.40625 0  0.625 0.40625 0  0.65625 0.40625 0  0.6875 0.40625 0  0.71875 0.40625 0  0.75 0.40625 0  0.78125 0.40625 0  0.8125 0.40625 0  0.84375 0.40625 0  0.875 0.40625 0  0.90625 0.40625 0  0.9375 0.40625 0  0.96875 0.40625 0  1 0.40625 0  0 0.4375 0  0.03125 0.4375 0  0.0625 0.4375 0  0.09375 0.4375 0  0.125 0.4375 0  0.15625 0.4375 0  0.1875 0.4375 0  0.21875 0.4375 0  0.25 0.4375 0  0.28125 0.4375 0  0.3125 0.4375 0  0.34375 0.4375 0  0.375 0.4375 0  0.40625 0.4375 0  0.4375 0.4375 0  0.46875 0.4375 0  0.5 0.4375 0  0.53125 0.4375 0  0.5625 0.4375 0  0.59375 0.4375 0  0.625 0.4375 0  0.65625 0.4375 0  0.6875 0.4375 0  0.71875 0.4375 0  0.75 0.4375 0  0.78125 0.4375 0  0.8125 0.4375 0  0.84375 0.4375 0  0.875 0.4375 0  0.90625 0.4375 0  0.9375 0.4375 0  0.96875 0.4375 0  1 0.4375 0  0 0.46875 0  0.03125 0.46875 0  0.0625 0.46875 0  0.09375 0.46875 0  0.125 0.46875 0  0.15625 0.46875 0  0.1875 0.46875 0  0.21875 0.46875 0  0.25 0.46875 0  0.28125 0.46875 0  0.3125 0.46875 0  0.34375 0.46875 0  0.375 0.46875 0  0.40625 0.46875 0  0.4375 0.46875 0  0.46875 0.46875 0  0.5 0.46875 0  0.53125 0.46875 0  0.5625 0.46875 0  0.59375 0.46875 0  0.625 0.46875 0  0.65625 0.46875 0  0.6875 0.46875 0  0.71875 0.46875 0  0.75 0.46875 0  0.78125 0.46875 0  0.8125 0.46875 0  0.84375 0.46875 0  0.875 0.46875 0  0.90625 0.46875 0  0.9375 0.46875 0  0.96875 0.46875 0  1 0.46875 0  0 0.5 0  0.03125 0.5 0  0.0625 0.5 0  0.09375 0.5 0  0.125 0.5 0  0.15625 0.5 0  0.1875 0.5 0  0.21875 0.5 0  0.25 0.5 0  0.28125 0.5 0  0.3125 0.5 0  0.34375 0.5 0  0.375 0.5 0  0.40625 0.5 0  0.4375 0.5 0  0.46875 0.5 0  0.5 0.5 0  0.53125 0.5 0  0.5625 0.5 0  0.59375 0.5 0  0.625 0.5 0  0.65625 0.5 0  0.6875 0.5 0  0.71875 0.5 0  0.75 0.5 0  0.78125 0.5 0  0.8125 0.5 0  0.84375 0.5 0  0.875 0.5 0  0.90625 0.5 0  0.9375 0.5 0  0.96875 0.5 0  1 0.5 0  0 0.53125 0  0.03125 0.53125 0  0.0625 0.53125 0  0.09375 0.53125 0  0.125 0.53125 0  0.15625 0.53125 0  0.1875 0.53125 0  0.21875 0.53125 0  0.25 0.53125 0  0.28125 0.53125 0  0.3125 0.53125 0  0.34375 0.53125 0  0.375 0.53125 0  0.40625 0.53125 0  0.4375 0.53125 0  0.46875 0.53125 0  0.5 0.53125 0  0.53125 0.53125 0  0.5625 0.53125 0  0.59375 0.53125 0  0.625 0.53125 0  0.65625 0.53125 0  0.6875 0.53125 0  0.71875 0.53125 0  0.75 0.53125 0  0.78125 0.531
[...]
<PointData  Scalars="phi"> 
<DataArray  type="Float64"  Name="phi"  format="ascii">0.0000000000000000e+00  0.0000000000000000e+00  0.0000000000000000e+00  0.0000000000000000e+00  0.0000000000000000e+00  0.0000000000000000e+00  0.0000000000000000e+00  0.0000000000000000e+00  0.0000000000000000e+00  0.0000000000000000e+00  0.0000000000000000e+00  0.0000000000000000e+00  0.0000000000000000e+00  0.0000000000000000e+00  0.0000000000000000e+00  0.0000000000000000e+00  0.0000000000000000e+00  0.0000000000000000e+00  0.0000000000000000e+00  0.0000000000000000e+00  0.0000000000000000e+00  0.0000000000000000e+00  0.0000000000000000e+00  0.0000000000000000e+00  0.0000000000000000e+00  0.0000000000000000e+00  0.0000000000000000e+00  0.0000000000000000e+00  0.0000000000000000e+00  0.0000000000000000e+00  0.0000000000000000e+00  0.0000000000000000e+00  0.0000000000000000e+00  0.0000000000000000e+00  -1.6383723029797133e-02  -3.2309347204593247e-02  -4.7423883651982794e-02  -6.1386841634319844e-02  -7.3889469560568161e-02  -8.4667535317502790e-02  -9.3510709025108121e-02  -1.0026931089532090e-01  -1.0485856721501641e-01  -1.0726037735634436e-01  -1.0752260439594905e-01  -1.0575596190835224e-01  -1.0212864555348797e-01  -9.6858936047823696e-02  -9.0206072690711667e-02  -8.2459759239012748e-02  -7.3928713387305445e-02  -6.4928705150225086e-02  -5.5770546575242275e-02  -4.6748494699740614e-02  -3.8129511494325995e-02  -3.0143789401001032e-02  -2.2976900348356252e-02  -1.6763861792996056e-02  -1.1585337932680195e-02  -7.4661107685585872e-03  -4.3758675698072442e-03  -2.2322623083399851e-03  -9.0612312124650372e-04  -2.2860140113788516e-04  -2.5147341258748876e-15  0.0000000000000000e+00  0.0000000000000000e+00  -3.2309347204593171e-02  -6.3752305085085087e-02  -9.3602407170130214e-02  -1.2117561664171717e-01  -1.4585619489653362e-01  -1.6711861376129711e-01  -1.8454512807977191e-01  -1.9783882325349997e-01  -2.0683193905945149e-01  -2.1148932574289758e-01  -2.1190700623359415e-01  -2.0830596946606683e-01  -2.0102148234659833e-01  -1.9048836742259076e-01  -1.7722283962075397e-01  -1.6180162094049638e-01  -1.4483915092011385e-01  -1.2696377874582143e-01  -1.0879385718970150e-01  -9.0914657710757144e-02  -7.3856990025879005e-02  -5.8078339643220109e-02  -4.3947235968167436e-02  -3.1731435584702858e-02  -2.1590355205908431e-02  -1.3572022510539917e-02  -7.6146373043232771e-03  -3.5526574129486213e-03  -1.1271511974904527e-03  -9.8504561413850822e-15  2.2860140112792757e-04  0.0000000000000000e+00  0.0000000000000000e+00  -4.7423883651982496e-02  -9.3602407170129853e-02  -1.3744336454777628e-01  -1.7792594683302559e-01  -2.1413481253017291e-01  -2.4529045389614973e-01  -2.7077430969048827e-01  -2.9014769912672284e-01  -3.0316397504717035e-01  -3.0977354785463490e-01  -3.1012168243287597e-01  -3.0453922727041627e-01  -2.9352669078273308e-01  -2.7773232342217175e-01  -2.5792508483102972e-01  -2.3496356356837222e-01  -2.0976206498493039e-01  -1.8325518459804885e-01  -1.5636223573599883e-01  -1.2995289921952660e-01  -1.0481540944710294e-01  -8.1628487523602467e-02  -6.0938082060421415e-02  -4.3139787826621194e-02  -2.8467588981532420e-02  -1.6989325920154917e-02  -8.6090225664130163e-03  -3.0759446697838132e-03  -2.1317983994482509e-14  1.1271511974614646e-03  9.0612312123184531e-04  0.0000000000000000e+00  0.0000000000000000e+00  -6.1386841634319109e-02  -1.2117561664171600e-01  -1.7792594683302460e-01  -2.3029503601908674e-01  -2.7708128798872844e-01  -3.1726321856919437e-01  -3.5003183588958936e-01  -3.7481516630336309e-01  -3.9129401758506543e-01  -3.9940844480334758e-01  -3.9935474696729367e-01  -3.9157318064297608e-01  -3.7672692449941392e-01  -3.5567315551655676e-01  -3.2942739154069095e-01  -2.9912250478516800e-01  -2.6596400705777112e-01  -2.3118334232269255e-01  -1.9599099044242696e-01  -1.6153118495958257e-01  -1.2883997763152741e-01  -9.8808245867692907e-02  -7.2151041560690132e-02  -4.9384428736324974e-02  -3.0810662734192612e-02  -1.6512236726660474e-02  -6.3549749990817767e-03  -3.5812976343310090e-14  3.0759446697285406e-03  3.5526574129110264e-03  2.2322623083209665e-03  0.0000000000000000e+00  0.0000000000000000e+00  -7.3889469560566745e-02  -1.4585619489653123e-01  -2.1413481253017019e-01  -2.7708128798872639e-01  -3.3322636028114822e-01  -3.8132296206159466e-01  -4.2038564397380196e-01  -4.4972043534632367e-01  -4.6894400986951124e-01  -4.7799147150272125e-01  -4.7711252663171100e-01  -4.6685625628410649e-01  -4.4804513593700779e-01  -4.2173935658377393e-01  -3.8919286512665618e-01  -3.5180285147499712e-01  -3.1105465235249535e-01  -2.6846420856137537e-01  -2.2552029698857734e-01  -1.8362875778852800e-01  -1.4406085104282768e-01  -1.0790770916962107e-01  -7.6042607981285287e-02  -4.9092470018336089e-02  -2.7419650606275547e-02  -1.1114654043991846e-02  -5.1915888040426461e-14  6.3549749989955107e-03  8.6090225663464099e-03  7.6146373042779540e-03  4.3758675697843086e-03  0.0000000000000000e+00  0.0000000000000000e+00  -8.4667535317500403e-02  -1.6711861376129278e-01  -2.4529045389614440e-01  -3.1726321856918915e-01  -3.8132296206159111e-01  -4.3601725794023660e-01  -4.8020135105861506e-01  -5.1307306198933678e-01  -5.3419513349490155e-01  -5.4350421233774360e-01  -5.4130618394301222e-01  -5.2825810443246279e-01  -5.0533748693452851e-01  -4.7380017922467821e-01  -4.3512850049342094e-01  -3.9097167056617188e-01  -3.4308085158687535e-01  -2.9324131926165642e-01  -2.4320438083348184e-01  -1.9462165630592182e-01  -1.4898423819029616e-01  -1.0756904721255509e-01  -7.1394414691186930e-02  -4.1186557805445612e-02  -1.7358185815280012e-02  -6.8024876687085886e-14  1.1114654043872943e-02  1.6512236726561606e-02  1.6989325920078534e-02  1.3572022510487915e-02  7.4661107685322636e-03  0.0000000000000000e+00  0.0000000000000000e+00  -9.3510709025104388e-02  -1.8454512807976498e-01  -2.7077430969047928e-01  -3.5003183588957976e-01  -4.2038564397379330e-01  -4.8020135105860962e-01  -5.2819469724052603e-01  -5.6347113857032149e-01  -5.8555112077992777e-01  -5.9438012291935927e-01  -5.9032315012972059e-01  -5.7414395302967369e-01  -5.4696983522258180e-01  -5.1024345870790100e-01  -4.6566354922047903e-01  -4.1511682138329209e-01  -3.6060377138094557e-01  -3.0416121031989013e-01  -2.4778452607321427e-01  -1.9335266096634735e-01  -1.4255867729768879e-01  -9.6848556961530718e-02  -5.7370554138956864e-02  -2.4937003829623470e-02  -8.2489384462075459e-14  1.7358185815130087e-02  2.7419650606144361e-02  3.0810662734083435e-02  2.8467588981448015e-02  2.1590355205850939e-02  1.1585337932651079e-02  0.0000000000000000e+00  0.0000000000000000e+00  -1.0026931089531552e-01  -1.9783882325348984e-01  -2.9014769912670912e-01  -3.7481516630334738e-01  -4.4972043534630801e-01  -5.1307306198932356e-01  -5.6347113857031350e-01  -5.9994515257277437e-01  -6.2198589639074020e-01  -6.2955542483469107e-01  -6.2308070804500038e-01  -6.0343029057358621e-01  -5.7187491650965683e-01  -5.3003369086952046e-01  -4.7980789592512041e-01  -4.2330504697718135e-01  -3.6275613767667642e-01  -3.0042927654902141e-01  -2.3854304440413687e-01  -1.7918290206443382e-01  -1.2422384946444051e-01  -7.5262285733949774e-02  -3.3559655154257059e-02  -9.3762137846040456e-14  2.4937003829447406e-02  4.1186557805285344e-02  4.9092470018195666e-02  4.9384428736207985e-02  4.3139787826530676e-02  3.1731435584641164e-02  1.6763861792964803e-02  0.0000000000000000e+00  0.0000000000000000e+00  -1.0485856721500900e-01  -2.0683193905943742e-01  -3.0316397504715098e-01  -3.9129401758504245e-01  -4.6894400986948703e-01  -5.3419513349487890e-01  -5.8555112077990956e-01  -6.2198589639072965e-01  -6.4297379654415165e-01  -6.4850127875988006e-01  -6.3905974279553301e-01  -6.1561980534004757e-01  -5.7958807881250118e-01  -5.3274817081021819e-01  -4.7718821981795440e-01  -4.1521779185700713e-01  -3.4927736243331797e-01  -2.8184388325079923e-01  -2.1533607327833931e-01  -1.5202307365866846e-01  -9.3939965765083927e-02  -4.2813376963370370e-02  -1.0053161546525458e-13  3.3559655154062597e-02  5.7370554138773830e-02  7.1394414691019994e-02  7.6042607981138766e-02  7.2151041560567925e-02  6.0938082060326748e-02  4.3947235968102877e-02  2.2976900348323531e-02  0.0000000000000000e+00  0.0000000000000000e+00  -1.0726037735633470e-01  -2.1148932574287907e-01  -3.0977354785460898e-01  -3.9940844480331616e-01  -4.7799147150268695e-01  -5.4350421233770940e-01  -5.9438012291932840e-01  -6.2955542483466709e-01  -6.4850127875986630e-01  -6.5123607426425756e-01  -6.3831743344544600e-01  -6.1081430002888282e-01  -5.7026024535480180e-01  -5.1858983825563687e-01  -4.5806056960352654e-01  -3.9116336956495645e-01  -3.2052518539199604e-01  -2.4880738350139761e-01  -1.7860389039254396e-01  -1.1234298696035552e-01  -5.2196520091391051e-02  -1.0183779370588153e-13  4.2813376963167553e-02  7.5262285733752904e-02  9.6848556961344867e-02  1.0756904721238514e-01  1.0790770916947165e-01  9.8808245867568076e-02  8.1628487523505683e-02  5.8078339643154037e-02  3.0143789400967527e-02  0.0000000000000000e+00  0.0000000000000000e+00  -1.0752260439593687e-01  -2.1190700623357062e-01  -3.1012168243284260e-01  -3.9935474696725282e-01  -4.7711252663166548e-01  -5.4130618394296515e-01  -5.9032315012967540e-01  -6.2308070804496107e-01  -6.3905974279550326e-01  -6.3831743344542957e-01  -6.2147846275271523e-01  -5.8970514206239300e-01  -5.4464765324743203e-01  -4.8837636774373971e-01  -4.2329888499255286e-01  -3.5206501272040724e-01  -2.7746336718231168e-01  -2.0231358531593080e-01  -1.2935830072580340e-01  -6.1159035484330770e-02  -9.7177406952268503e-14  5.2196520091191405e-02  9.3939965764884059e-02  1.2422384946424561e-01  1.4255867729750413e-01  1.4898423819012685e-01  1.4406085104267841e-01  1.2883997763140254e-01  1.0481540944700596e-01  7.3856990025812752e-02  3.8129511494292376e-02  0.0000000000000000e+00  0.0000000000000000e+00  -1.0575596190833739e-01  -2.0830596946603797e-01  -3.0453922727037502e-01  -3.9157318064292496e-01  -4.6685625628404842e-01  -5.2825810443240129e-01  -5.7414395302961263e-01  -6.0343029057352948e-01  -6.1561980533999949e-01  -6.1081430002884740e-01  -5.8970514206237379e-01  -5.5354166811111938e-01  -5.0407880366623137e-01  -4.4350595203181342e-01  -3.7435992133733109e-01  -2.9942526555187127e-01  -2.2162589266143837e-01  -1.4391212183243393e-01  -6.9147538948234652e-02  -8.6510774757673650e-14  6.1159035484146383e-02  1.1234298696016448e-01  1.5202307365847595e-01  1.7918290206424503e-01  1.9335266096616771e-01  1.9462165630575654e-01  1.8362875778838189e-01  1.6153118495946006e-01  1.2995289921943132e-01  9.0914657710691960e-02  4.6748494699707523e-02  0.0000000000000000e+00  0.0000000000000000e+00  -1.0212864555347026e-01  -2.0102148234656392e-01  -2.9352669078268356e-01  -3.7672692449935186e-01  -4.4804513593693657e-01  -5.0533748693445157e-01  -5.4696983522250364e-01  -5.7187491650958155e-01  -5.7958807881243302e-01  -5.7026024535474562e-01  -5.4464765324739151e-01  -5.0407880366620983e-01  -4.5039993104015746e-01  -3.8590112018999023e-01  -3.1322593972585094e-01  -2.3526808882941000e-01  -1.5505904860955799e-01  -7.5651069539333760e-02  -7.0309350906279401e-14  6.9147538948077139e-02  1.2935830072563312e-01  1.7860389039236563e-01  2.1533607327815799e-01  2.3854304440395788e-01  2.4778452607304313e-01  2.4320438083332369e-01  2.2552029698843706e-01  1.9599099044230900e-01  1.5636223573590693e-01  1.0879385718963856e-01  5.5770546575210286e-02  0.0000000000000000e+00  0.0000000000000000e+00  -9.6858936047803129e-02  -1.9048836742255060e-01  -2.7773232342211374e-01  -3.5567315551648376e-01  -4.2173935658368916e-01  -4.7380017922458573e-01  -5.1024345870780508e-01  -5.3003369086942564e-01  -5.3274817081012948e-01  -5.1858983825555849e-01  -4.8837636774367621e-01  -4.4350595203176835e-01  -3.8590112018996658e-01  -3.1793277333052472e-01  -2.4232737837117035e-01  -1.6206090445944871e-01  -8.0243592884874954e-02  -4.9506834893051512e-14  7.5651069539213411e-02  1.4391212183229546e-01  2.0231358531577817e-01  2.4880738350123544e-01  2.8184388325063264e-01  3.0042927654885554e-01  3.0416121031973042e-01  2.9324131926150809e-01  2.6846420856124331e-01  2.3118334232258114e-01  1.8325518459796186e-01  1.2696377874576176e-01  6.4928705150194721e-02  0.0000000000000000e+00  0.0000000000000000e+00  -9.0206072690688283e-02  -1.7722283962070823e-01  -2.5792508483096344e-01  -3.2942739154060702e-01  -3.8919286512655821e-01  -4.3512850049331286e-01  -4.6566354922036540e-01  -4.7980789592500617e-01  -4.7718821981784443e-01  -4.5806056960342567e-01  -4.2329888499246582e-01  -3.7435992133726165e-01  -3.1322593972580232e-01  -2.4232737837114524e-01  -1.6444848941996154e-01  -8.2619578774222546e-02  -2.5432896475271061e-14  8.0243592884799667e-02  1.5505904860946046e-01  2.2162589266132152e-01  2.7746336718217945e-01  3.2052518539185282e-01  3.4927736243316865e-01  3.6275613767652631e-01  3.6060377138079980e-01  3.4308085158673907e-01  3.1105465235237340e-01  2.6596400705766787e-01  2.0976206498484962e-01  1.4483915092005833e-01  7.3928713387277148e-02  0.0000000000000000e+00  0.0000000000000000e+00  -8.2459759238986713e-02  -1.6180162094044531e-01  -2.3496356356829812e-01  -2.9912250478507374e-01  -3.5180285147488632e-01  -3.9097167056604876e-01  -4.1511682138316142e-01  -4.2330504697704807e-01  -4.1521779185687646e-01  -3.9116336956483350e-01  -3.5206501272029667e-01  -2.9942526555177729e-01  -2.3526808882933617e-01  -1.6206090445939789e-01  -8.2619578774196609e-02  3.9044923096338174e-16  8.2619578774197358e-02  1.6206090445939864e-01  2.3526808882933692e-01  2.9942526555177790e-01  3.5206501272029733e-01  3.9116336956483416e-01  4.1521779185687724e-01  4.2330504697704890e-01  4.1511682138316219e-01  3.9097167056604942e-01  3.5180285147488688e-01  2.9912250478507429e-01  2.3496356356829862e-01  1.6180162094044567e-01  8.2459759238986893e-02  0.0000000000000000e+00  0.0000000000000000e+00  -7.3928713387276981e-02  -1.4483915092005800e-01  -2.0976206498484917e-01  -2.6596400705766732e-01  -3.1105465235237278e-01  -3.4308085158673840e-01  -3.6060377138079902e-01  -3.6275613767652548e-01  -3.4927736243316793e-01  -3.2052518539185204e-01  -2.7746336718217879e-01  -2.2162589266132079e-01  -1.5505904860945963e-01  -8.0243592884798903e-02  2.6192022799434938e-14  8.2619578774223296e-02  1.6444848941996221e-01  2.4232737837114585e-01  3.1322593972580282e-01  3.7435992133726204e-01  4.2329888499246621e-01  4.5806056960342639e-01  4.7718821981784532e-01  4.7980789592500706e-01  4.6566354922036624e-01  4.3512850049331353e-01  3.8919286512655887e-01  3.2942739154060763e-01  2.5792508483096394e-01  1.7722283962070856e-01  9.0206072690688477e-02  0.0000000000000000e+00  0.0000000000000000e+00  -6.4928705150194554e-02  -1.2696377874576142e-01  -1.8325518459796142e-01  -2.3118334232258064e-01  -2.6846420856124270e-01  -2.9324131926150743e-01  -3.0416121031972976e-01  -3.0042927654885487e-01  -2.8184388325063203e-01  -2.4880738350123477e-01  -2.0231358531577745e-01  -1.4391212183229468e-01  -7.5651069539212579e-02  5.0327325637022240e-14  8.0243592884875758e-02  1.6206090445944951e-01  2.4232737837117108e-01  3.1793277333052516e-01  3.8590112018996692e-01  4.4350595203176857e-01  4.8837636774367665e-01  5.1858983825555927e-01  5.3274817081013037e-01  5.3003369086942664e-01  5.1024345870780596e-01  4.7380017922458650e-01  4.2173935658368994e-01  3.5567315551648437e-01  2.7773232342211429e-01  1.9048836742255096e-01  9.6858936047803323e-02  0.0000000000000000e+00  0.0000000000000000e+00  -5.5770546575210134e-02  -1.0879385718963827e-01  -1.5636223573590652e-01  -1.9599099044230850e-01  -2.2552029698843654e-01  -2.4320438083332307e-01  -2.4778452607304252e-01  -2.3854304440395729e-01  -2.1533607327815740e-01  -1.7860389039236496e-01  -1.2935830072563242e-01  -6.9147538948076348e-02  7.1138013268342622e-14  7.5651069539334620e-02  1.5505904860955882e-01  2.3526808882941080e-01  3.1322593972585150e-01  3.8590112018999073e-01  4.5039993104015785e-01  5.0407880366621005e-01  5.4464765324739206e-01  5.7026024535474629e-01  5.7958807881243413e-01  5.7187491650958266e-01  5.4696983522250464e-01  5.0533748693445246e-01  4.4804513593693729e-01  3.7672692449935252e-01  2.9352669078268412e-01  2.0102148234656425e-01  1.0212864555347043e-01  0.0000000000000000e+00  0.0000000000000000e+00  -4.6748494699707384e-02  -9.0914657710691710e-02  -1.2995289921943093e-01  -1.6153118495945956e-01  -1.8362875778838134e-01  -1.9462165630575590e-01  -1.9335266096616704e-01  -1.7918290206424436e-01  -1.5202307365847526e-01  -1.1234298696016379e-01  -6.1159035484145627e-02  8.7317381002090430e-14  6.9147538948235499e-02  1.4391212183243474e-01  2.2162589266143912e-01  2.9942526555187199e-01  3.7435992133733165e-01  4.4350595203181392e-01  5.0407880366623181e-01  5.5354166811111982e-01  5.8970514206237423e-01  6.1081430002884818e-01  6.1561980534000060e-01  6.0343029057353070e-01  5.7414395302961363e-01  5.2825810443240206e-01  4.6685625628404914e-01  3.9157318064292557e-01  3.0453922727037552e-01  2.0830596946603830e-01  1.0575596190833755e-01  0.0000000000000000e+00  0.0000000000000000e+00  -3.8129511494292237e-02  -7.3856990025812502e-02  -1.0481540944700560e-01  -1.2883997763140204e-01  -1.4406085104267785e-01  -1.4898423819012624e-01  -1.4255867729750349e-01  -1.2422384946424493e-01  -9.3939965764883351e-02  -5.2196520091190669e-02  9.7951824111399341e-14  6.1159035484331575e-02  1.2935830072580423e-01  2.0231358531593158e-01  2.7746336718231246e-01  3.5206501272040785e-01  4.2329888499255336e-01  4.8837636774374027e-01  5.4464765324743269e-01  5.8970514206239355e-01  6.2147846275271590e-01  6.3831743344543046e-01  6.3905974279550437e-01  6.2308070804496229e-01  5.9032315012967640e-01  5.4130618394296592e-01  4.7711252663166603e-01  3.9935474696725326e-01  3.1012168243284305e-01  2.1190700623357095e-01  1.0752260439593705e-01  0.0000000000000000e+00  0.0000000000000000e+00  -3.0143789400967402e-02  -5.8078339643153801e-02  -8.1628487523505322e-02  -9.8808245867567618e-02  -1.0790770916947112e-01  -1.0756904721238457e-01  -9.6848556961344229e-02  -7.5262285733752238e-02  -4.2813376963166852e-02  1.0257719103569512e-13  5.2196520091391814e-02  1.1234298696035633e-01  1.7860389039254482e-01  2.4880738350139842e-01  3.2052518539199681e-01  3.9116336956495712e-01  4.5806056960352703e-01  5.1858983825563754e-01  5.7026024535480269e-01  6.1081430002888359e-01  6.3831743344544689e-01  6.5123607426425845e-01  6.4850127875986741e-01  6.2955542483466842e-01  5.9438012291932940e-01  5.4350421233771018e-01  4.7799147150268756e-01  3.9940844480331661e-01  3.0977354785460920e-01  2.1148932574287932e-01  1.0726037735633485e-01  0.0000000000000000e+00  0.0000000000000000e+00  -2.2976900348323413e-02  -4.3947235968102655e-02  -6.0938082060326429e-02  -7.2151041560567522e-02  -7.6042607981138294e-02  -7.1394414691019453e-02  -5.7370554138773233e-02  -3.3559655154061965e-02  1.0120636199628398e-13  4.2813376963371078e-02  9.3939965765084676e-02  1.5202307365866929e-01  2.1533607327834012e-01  2.8184388325080006e-01  3.4927736243331869e-01  4.1521779185700786e-01  4.7718821981795523e-01  5.3274817081021908e-01  5.7958807881250196e-01  6.1561980534004834e-01  6.3905974279553379e-01  6.4850127875988095e-01  6.4297379654415265e-01  6.2198589639073054e-01  5.8555112077991023e-01  5.3419513349487935e-01  4.6894400986948748e-01  3.9129401758504279e-01  3.0316397504715115e-01  2.0683193905943764e-01  1.0485856721500916e-01  0.0000000000000000e+00  0.0000000000000000e+00  -1.6763861792964699e-02  -3.1731435584640963e-02  -4.3139787826530385e-02  -4.9384428736207617e-02  -4.9092470018195229e-02  -4.1186557805284844e-02  -2.4937003829446854e-02  9.4351897894115728e-14  3.3559655154257698e-02  7.5262285733950440e-02  1.2422384946444121e-01  1.7918290206443457e-01  2.3854304440413765e-01  3.0042927654902213e-01  3.6275613767667714e-01  4.2330504697718202e-01  4.7980789592512108e-01  5.3003369086952112