<?xml version="1.0"?>
<VTKFile type="UnstructuredGrid"  version="0.1"  >
<UnstructuredGrid>
<Piece  NumberOfPoints="1089" NumberOfCells="2048">
<Points>
<DataArray  type="Float64"  NumberOfComponents="3"  format="ascii">0 0 0  0.03125 0 0  0.0625 0 0  0.09375 0 0  0.125 0 0  0.15625 0 0  0.1875 0 0  0.21875 0 0  0.25 0 0  0.28125 0 0  0.3125 0 0  0.34375 0 0  0.375 0 0  0.40625 0 0  0.4375 0 0  0.46875 0 0  0.5 0 0  0.53125 0 0  0.5625 0 0  0.59375 0 0  0.625 0 0  0.65625 0 0  0.6875 0 0  0.71875 0 0  0.75 0 0  0.78125 0 0  0.8125 0 0  0.84375 0 0  0.875 0 0  0.90625 0 0  0.9375 0 0  0.96875 0 0  1 0 0  0 0.03125 0  0.03125 0.03125 0  0.0625 0.03125 0  0.09375 0.03125 0  0.125 0.03125 0  0.15625 0.03125 0  0.1875 0.03125 0  0.21875 0.03125 0  0.25 0.03125 0  0.28125 0.03125 0  0.3125 0.03125 0  0.34375 0.03125 0  0.375 0.03125 0  0.40625 0.03125 0  0.4375 0.03125 0  0.46875 0.03125 0  0.5 0.03125 0  0.53125 0.03125 0  0.5625 0.03125 0  0.59375 0.03125 0  0.625 0.03125 0  0.65625 0.03125 0  0.6875 0.03125 0  0.71875 0.03125 0  0.75 0.03125 0  0.78125 0.03125 0  0.8125 0.03125 0  0.84375 0.03125 0  0.875 0.03125 0  0.90625 0.03125 0  0.9375 0.03125 0  0.96875 0.03125 0  1 0.03125 0  0 0.0625 0  0.03125 0.0625 0  0.0625 0.0625 0  0.09375 0.0625 0  0.125 0.0625 0  0.15625 0.0625 0  0.1875 0.0625 0  0.21875 0.0625 0  0.25 0.0625 0  0.28125 0.0625 0  0.3125 0.0625 0  0.34375 0.0625 0  0.375 0.0625 0  0.40625 0.0625 0  0.4375 0.0625 0  0.46875 0.0625 0  0.5 0.0625 0  0.53125 0.0625 0  0.5625 0.0625 0  0.59375 0.0625 0  0.625 0.0625 0  0.65625 0.0625 0  0.6875 0.0625 0  0.71875 0.0625 0  0.75 0.0625 0  0.78125 0.0625 0  0.8125 0.0625 0  0.84375 0.0625 0  0.875 0.0625 0  0.90625 0.0625 0  0.9375 0.0625 0  0.96875 0.0625 0  1 0.0625 0  0 0.09375 0  0.03125 0.09375 0  0.0625 0.09375 0  0.09375 0.09375 0  0.125 0.09375 0  0.15625 0.09375 0  0.1875 0.09375 0  0.21875 0.09375 0  0.25 0.09375 0  0.28125 0.09375 0  0.3125 0.09375 0  0.34375 0.09375 0  0.375 0.09375 0  0.40625 0.09375 0  0.4375 0.09375 0  0.46875 0.09375 0  0.5 0.09375 0  0.53125 0.09375 0  0.5625 0.09375 0  0.59375 0.09375 0  0.625 0.09375 0  0.65625 0.09375 0  0.6875 0.09375 0  0.71875 0.09375 0  0.75 0.09375 0  0.78125 0.09375 0  0.8125 0.09375 0  0.84375 0.09375 0  0.875 0.09375 0  0.90625 0.09375 0  0.9375 0.09375 0  0.96875 0.09375 0  1 0.09375 0  0 0.125 0  0.03125 0.125 0  0.0625 0.125 0  0.09375 0.125 0  0.125 0.125 0  0.15625 0.125 0  0.1875 0.125 0  0.21875 0.125 0  0.25 0.125 0  0.28125 0.125 0  0.3125 0.125 0  0.34375 0.125 0  0.375 0.125 0  0.40625 0.125 0  0.4375 0.125 0  0.46875 0.125 0  0.5 0.125 0  0.53125 0.125 0  0.5625 0.125 0  0.59375 0.125 0  0.625 0.125 0  0.65625 0.125 0  0.6875 0.125 0  0.71875 0.125 0  0.75 0.125 0  0.78125 0.125 0  0.8125 0.125 0  0.84375 0.125 0  0.875 0.125 0  0.90625 0.125 0  0.9375 0.125 0  0.96875 0.125 0  1 0.125 0  0 0.15625 0  0.03125 0.15625 0  0.0625 0.15625 0  0.09375 0.15625 0  0.125 0.15625 0  0.15625 0.15625 0  0.1875 0.15625 0  0.21875 0.15625 0  0.25 0.15625 0  0.28125 0.15625 0  0.3125 0.15625 0  0.34375 0.15625 0  0.375 0.15625 0  0.40625 0.15625 0  0.4375 0.15625 0  0.46875 0.15625 0  0.5 0.15625 0  0.53125 0.15625 0  0.5625 0.15625 0  0.59375 0.15625 0  0.625 0.15625 0  0.65625 0.15625 0  0.6875 0.15625 0  0.71875 0.15625 0  0.75 0.15625 0  0.78125 0.15625 0  0.8125 0.15625 0  0.84375 0.15625 0  0.875 0.15625 0  0.90625 0.15625 0  0.9375 0.15625 0  0.96875 0.15625 0  1 0.15625 0  0 0.1875 0  0.03125 0.1875 0  0.0625 0.1875 0  0.09375 0.1875 0  0.125 0.1875 0  0.15625 0.1875 0  0.1875 0.1875 0  0.21875 0.1875 0  0.25 0.1875 0  0.28125 0.1875 0  0.3125 0.1875 0  0.34375 0.1875 0  0.375 0.1875 0  0.40625 0.1875 0  0.4375 0.1875 0  0.46875 0.1875 0  0.5 0.1875 0  0.53125 0.1875 0  0.5625 0.1875 0  0.59375 0.1875 0  0.625 0.1875 0  0.65625 0.1875 0  0.6875 0.1875 0  0.71875 0.1875 0  0.75 0.1875 0  0.78125 0.1875 0  0.8125 0.1875 0  0.84375 0.1875 0  0.875 0.1875 0  0.90625 0.1875 0  0.9375 0.1875 0  0.96875 0.1875 0  1 0.1875 0  0 0.21875 0  0.03125 0.21875 0  0.0625 0.21875 0  0.09375 0.21875 0  0.125 0.21875 0  0.15625 0.21875 0  0.1875 0.21875 0  0.21875 0.21875 0  0.25 0.21875 0  0.28125 0.21875 0  0.3125 0.21875 0  0.34375 0.21875 0  0.375 0.21875 0  0.40625 0.21875 0  0.4375 0.21875 0  0.46875 0.21875 0  0.5 0.21875 0  0.53125 0.21875 0  0.5625 0.21875 0  0.59375 0.21875 0  0.625 0.21875 0  0.65625 0.21875 0  0.6875 0.21875 0  0.71875 0.21875 0  0.75 0.21875 0  0.78125 0.21875 0  0.8125 0.21875 0  0.84375 0.21875 0  0.875 0.21875 0  0.90625 0.21875 0  0.9375 0.21875 0  0.96875 0.21875 0  1 0.21875 0  0 0.25 0  0.03125 0.25 0  0.0625 0.25 0  0.09375 0.25 0  0.125 0.25 0  0.15625 0.25 0  0.1875 0.25 0  0.21875 0.25 0  0.25 0.25 0  0.28125 0.25 0  0.3125 0.25 0  0.34375 0.25 0  0.375 0.25 0  0.40625 0.25 0  0.4375 0.25 0  0.46875 0.25 0  0.5 0.25 0  0.53125 0.25 0  0.5625 0.25 0  0.59375 0.25 0  0.625 0.25 0  0.65625 0.25 0  0.6875 0.25 0  0.71875 0.25 0  0.75 0.25 0  0.78125 0.25 0  0.8125 0.25 0  0.84375 0.25 0  0.875 0.25 0  0.90625 0.25 0  0.9375 0.25 0  0.96875 0.25 0  1 0.25 0  0 0.28125 0  0.03125 0.28125 0  0.0625 0.28125 0  0.09375 0.28125 0  0.125 0.28125 0  0.15625 0.28125 0  0.1875 0.28125 0  0.21875 0.28125 0  0.25 0.28125 0  0.28125 0.28125 0  0.3125 0.28125 0  0.34375 0.28125 0  0.375 0.28125 0  0.40625 0.28125 0  0.4375 0.28125 0  0.46875 0.28125 0  0.5 0.28125 0  0.53125 0.28125 0  0.5625 0.28125 0  0.59375 0.28125 0  0.625 0.28125 0  0.65625 0.28125 0  0.6875 0.28125 0  0.71875 0.28125 0  0.75 0.28125 0  0.78125 0.28125 0  0.8125 0.28125 0  0.84375 0.28125 0  0.875 0.28125 0  0.90625 0.28125 0  0.9375 0.28125 0  0.96875 0.28125 0  1 0.28125 0  0 0.3125 0  0.03125 0.3125 0  0.0625 0.3125 0  0.09375 0.3125 0  0.125 0.3125 0  0.15625 0.3125 0  0.1875 0.3125 0  0.21875 0.3125 0  0.25 0.3125 0  0.28125 0.3125 0  0.3125 0.3125 0  0.34375 0.3125 0  0.375 0.3125 0  0.40625 0.3125 0  0.4375 0.3125 0  0.46875 0.3125 0  0.5 0.3125 0  0.53125 0.3125 0  0.5625 0.3125 0  0.59375 0.3125 0  0.625 0.3125 0  0.65625 0.3125 0  0.6875 0.3125 0  0.71875 0.3125 0  0.75 0.3125 0  0.78125 0.3125 0  0.8125 0.3125 0  0.84375 0.3125 0  0.875 0.3125 0  0.90625 0.3125 0  0.9375 0.3125 0  0.96875 0.3125 0  1 0.3125 0  0 0.34375 0  0.03125 0.34375 0  0.0625 0.34375 0  0.09375 0.34375 0  0.125 0.34375 0  0.15625 0.34375 0  0.1875 0.34375 0  0.21875 0.34375 0  0.25 0.34375 0  0.28125 0.34375 0  0.3125 0.34375 0  0.34375 0.34375 0  0.375 0.34375 0  0.40625 0.34375 0  0.4375 0.34375 0  0.46875 0.34375 0  0.5 0.34375 0  0.53125 0.34375 0  0.5625 0.34375 0  0.59375 0.34375 0  0.625 0.34375 0  0.65625 0.34375 0  0.6875 0.34375 0  0.71875 0.34375 0  0.75 0.34375 0  0.78125 0.34375 0  0.8125 0.34375 0  0.84375 0.34375 0  0.875 0.34375 0  0.90625 0.34375 0  0.9375 0.34375 0  0.96875 0.34375 0  1 0.34375 0  0 0.375 0  0.03125 0.375 0  0.0625 0.375 0  0.09375 0.375 0  0.125 0.375 0  0.15625 0.375 0  0.1875 0.375 0  0.21875 0.375 0  0.25 0.375 0  0.28125 0.375 0  0.3125 0.375 0  0.34375 0.375 0  0.375 0.375 0  0.40625 0.375 0  0.4375 0.375 0  0.46875 0.375 0  0.5 0.375 0  0.53125 0.375 0  0.5625 0.375 0  0.59375 0.375 0  0.625 0.375 0  0.65625 0.375 0  0.6875 0.375 0  0.71875 0.375 0  0.75 0.375 0  0.78125 0.375 0  0.8125 0.375 0  0.84375 0.375 0  0.875 0.375 0  0.90625 0.375 0  0.9375 0.375 0  0.96875 0.375 0  1 0.375 0  0 0.40625 0  0.03125 0.40625 0  0.0625 0.40625 0  0.09375 0.40625 0  0.125 0.40625 0  0.15625 0.40625 0  0.1875 0.40625 0  0.21875 0.40625 0  0.25 0.40625 0  0.28125 0.40625 0  0.3125 0.40625 0  0.34375 0.40625 0  0.375 0.40625 0  0.40625 0.40625 0  0.4375 0.40625 0  0.46875 0.40625 0  0.5 0.40625 0  0.53125 0.40625 0  0.5625 0.40625 0  0.59375 0.40625 0  0.625 0.40625 0  0.65625 0.40625 0  0.6875 0.40625 0  0.71875 0.40625 0  0.75 0.40625 0  0.78125 0.40625 0  0.8125 0.40625 0  0.84375 0.40625 0  0.875 0.40625 0  0.90625 0.40625 0  0.9375 0.40625 0  0.96875 0.40625 0  1 0.40625 0  0 0.4375 0  0.03125 0.4375 0  0.0625 0.4375 0  0.09375 0.4375 0  0.125 0.4375 0  0.15625 0.4375 0  0.1875 0.4375 0  0.21875 0.4375 0  0.25 0.4375 0  0.28125 0.4375 0  0.3125 0.4375 0  0.34375 0.4375 0  0.375 0.4375 0  0.40625 0.4375 0  0.4375 0.4375 0  0.46875 0.4375 0  0.5 0.4375 0  0.53125 0.4375 0  0.5625 0.4375 0  0.59375 0.4375 0  0.625 0.4375 0  0.65625 0.4375 0  0.6875 0.4375 0  0.71875 0.4375 0  0.75 0.4375 0  0.78125 0.4375 0  0.8125 0.4375 0  0.84375 0.4375 0  0.875 0.4375 0  0.90625 0.4375 0  0.9375 0.4375 0  0.96875 0.4375 0  1 0.4375 0  0 0.46875 0  0.03125 0.46875 0  0.0625 0.46875 0  0.09375 0.46875 0  0.125 0.46875 0  0.15625 0.46875 0  0.1875 0.46875 0  0.21875 0.46875 0  0.25 0.46875 0  0.28125 0.46875 0  0.3125 0.46875 0  0.34375 0.46875 0  0.375 0.46875 0  0.40625 0.46875 0  0.4375 0.46875 0  0.46875 0.46875 0  0.5 0.46875 0  0.53125 0.46875 0  0.5625 0.46875 0  0.59375 0.46875 0  0.625 0.46875 0  0.65625 0.46875 0  0.6875 0.46875 0  0.71875 0.46875 0  0.75 0.46875 0  0.78125 0.46875 0  0.8125 0.46875 0  0.84375 0.46875 0  0.875 0.46875 0  0.90625 0.46875 0  0.9375 0.46875 0  0.96875 0.46875 0  1 0.46875 0  0 0.5 0  0.03125 0.5 0  0.0625 0.5 0  0.09375 0.5 0  0.125 0.5 0  0.15625 0.5 0  0.1875 0.5 0  0.21875 0.5 0  0.25 0.5 0  0.28125 0.5 0  0.3125 0.5 0  0.34375 0.5 0  0.375 0.5 0  0.40625 0.5 0  0.4375 0.5 0  0.46875 0.5 0  0.5 0.5 0  0.53125 0.5 0  0.5625 0.5 0  0.59375 0.5 0  0.625 0.5 0  0.65625 0.5 0  0.6875 0.5 0  0.71875 0.5 0  0.75 0.5 0  0.78125 0.5 0  0.8125 0.5 0  0.84375 0.5 0  0.875 0.5 0  0.90625 0.5 0  0.9375 0.5 0  0.96875 0.5 0  1 0.5 0  0 0.53125 0  0.03125 0.53125 0  0.0625 0.53125 0  0.09375 0.53125 0  0.125 0.53125 0  0.15625 0.53125 0  0.1875 0.53125 0  0.21875 0.53125 0  0.25 0.53125 0  0.28125 0.53125 0  0.3125 0.53125 0  0.34375 0.53125 0  0.375 0.53125 0  0.40625 0.53125 0  0.4375 0.53125 0  0.46875 0.53125 0  0.5 0.53125 0  0.53125 0.53125 0  0.5625 0.53125 0  0.59375 0.53125 0  0.625 0.53125 0  0.65625 0.53125 0  0.6875 0.53125 0  0.71875 0.53125 0  0.75 0.53125 0  0.78125 0.531
[...]
<PointData  Scalars="theta"> 
<DataArray  type="Float64"  Name="theta"  format="ascii">5.8330249970632090e-05  1.2340694434889493e-04  3.4759168178407395e-05  6.1193843047090046e-05  6.9995259148521425e-06  8.8828574842310533e-06  2.1816980738414826e-05  7.6508319229350660e-06  9.9204479600329876e-05  3.4316747613454225e-05  1.5175677147702459e-04  6.0247633672566643e-05  1.7180111608898225e-04  8.8811166551491295e-05  1.4336601684046205e-05  8.1934824237061760e-05  3.4316747613454218e-05  2.3668013459603384e-05  1.5171904433997780e-05  7.1374970562292014e-06  1.2397341132003124e-06  2.1812698750188668e-05  1.5628898263530070e-05  8.0186539681222022e-06  3.4455605196997671e-06  1.4375455133773960e-04  1.1281147486381057e-04  9.4687239031898397e-05  7.6053844086567554e-05  5.6273985841500124e-05  4.2677667839969522e-05  3.5097372159086595e-05  3.0773633630148613e-05  4.9122336431395024e-06  5.6863828557639295e-05  1.2031176811274925e-04  3.2519237526450343e-05  5.9759452465880005e-05  4.7663100591412984e-06  8.3938604018377834e-06  2.1169480546781438e-05  7.1374970562292022e-06  9.6186963366240869e-05  3.2105327177259770e-05  1.4714076498810656e-04  5.6205300588769636e-05  1.6670227785264575e-04  8.3922154045693845e-05  9.7624738663482711e-06  8.0014262718016433e-05  3.2105327177259764e-05  2.3074394735766981e-05  1.4790483035167904e-05  6.6664032938477845e-06  6.2931104291273082e-07  2.1196007803388417e-05  1.4979898948895327e-05  7.5019204053843127e-06  2.8433074130685229e-06  1.3967019638376238e-04  1.0977742285574212e-04  9.2118093907240628e-05  7.2201353260669044e-05  5.2519274320520987e-05  3.9927457712439096e-05  3.2907887823484416e-05  1.7685973109569457e-05  4.6032817936332121e-06  5.5320944538610932e-05  1.1708204499591415e-04  3.0473960508252563e-05  5.8330249970632076e-05  2.4194635948353563e-06  7.8982156774474333e-06  2.0522604857453370e-05  6.6664032938477853e-06  9.3349941368504419e-05  3.0086082790488389e-05  1.4280086722622817e-04  5.2495601472742188e-05  1.6160835735420988e-04  7.8966678147724976e-05  4.9556050324213676e-06  7.8100647729704672e-05  3.0086082790488379e-05  2.2454971488531140e-05  1.4389173441925526e-05  6.2368107040724891e-06  0.0000000000000000e+00  2.0625943542491710e-05  1.4289662241209707e-05  7.0300918336042548e-06  2.1899024824557261e-06  1.3552496290676155e-04  1.0697385294946462e-04  8.9367057154320773e-05  6.8226703081716037e-05  4.8979884521506942e-05  3.7416245338905023e-05  7.3773397711988436e-06  1.7183479162673364e-05  4.3179932353153793e-06  5.3668826641065104e-05  1.1375550941112183e-04  2.8585335685922891e-05  5.6863828557639281e-05  0.0000000000000000e+00  7.4050207315205062e-06  1.9886720267464360e-05  6.2368107040724899e-06  9.0710741864325997e-05  2.8221496703970549e-05  1.3876358586906106e-04  4.9112709620204639e-05  1.5660098793065169e-04  7.4035695233406427e-05  0.0000000000000000e+00  7.6137198880143602e-05  2.8221496703970536e-05  2.1816980738414822e-05  1.3959451730328495e-05  5.8445504123139884e-06  2.9146149600076500e-05  2.0099184277243721e-05  1.3565822528035079e-05  6.5944016338809026e-06  1.4912087415119908e-06  1.3138372743299833e-04  1.0436451293565771e-04  8.6395001109117073e-05  6.4198019755317659e-05  4.5693564452607726e-05  8.3214808653128942e-06  7.0709913405798941e-06  1.6673495394334219e-05  4.0486232520839847e-06  5.1883976991354379e-05  1.1037939082596113e-04  2.6802092643436178e-05  5.5320944538610919e-05  1.9084806142533077e-05  6.9233300170286824e-06  1.9271554432297394e-05  5.8445504123139892e-06  8.8271086600186490e-05  2.6460951080198122e-05  1.3503155473604849e-04  4.6023796597384752e-05  1.5175677147702456e-04  6.9219732087877749e-05  1.2473428379701366e-04  7.4071371263793718e-05  2.6460951080198115e-05  2.1169480546781434e-05  1.3495206020287832e-05  5.4823341857403507e-06  2.8468966199594547e-05  1.9608918625091637e-05  1.2819030445841915e-05  6.1830221432852336e-06  7.5696402827778157e-07  1.2731285591204624e-04  1.0189739577606871e-04  8.3181657600796911e-05  6.0189248638539014e-05  4.0843590214568667e-05  7.1767885122454535e-06  6.7451775417254413e-06  1.6164003496180009e-05  3.7860481758789828e-06  4.9954223666385593e-05  1.0700652844653863e-04  2.5063832232398607e-05  5.3668826641065097e-05  1.8641388603733868e-05  6.4613917592394536e-06  1.8685368923438638e-05  5.4823341857403515e-06  8.6016760022380938e-05  2.4744815541342177e-05  1.3158302776749938e-04  4.3171470112019195e-05  1.4714076498810653e-04  6.4601254799251495e-05  1.2183619991226887e-04  7.1859286145195189e-05  2.4744815541342174e-05  2.0522604857453367e-05  1.2993270351533512e-05  5.1403289561805308e-06  2.7754934520797785e-05  1.9145375048255575e-05  1.2062086142730829e-05  5.7820197754767069e-06  0.0000000000000000e+00  1.2337462385159139e-04  9.9508909329179782e-05  7.9727489695751943e-05  1.3735537547688458e-05  3.9878071194327492e-05  5.9223501843092263e-06  6.4035020497019751e-06  1.5663168402041534e-05  3.5205130543700328e-06  4.7879844757780939e-05  1.0369097455169948e-04  2.3305976170314878e-05  5.1883976991354372e-05  1.8173842929384218e-05  6.0259443092134784e-06  1.8134246392729637e-05  5.1403289561805325e-06  8.3918612039523329e-05  2.3009333768197179e-05  1.2837341298757926e-04  4.0478298180891817e-05  1.4280086722622814e-04  6.0247633672566629e-05  1.1878041960217058e-04  6.9469481304435429e-05  2.3009333768197172e-05  1.9886720267464357e-05  1.2453717056680565e-05  4.8069508710022854e-06  2.7009863984189441e-05  1.8696605298301829e-05  1.1308883119937122e-05  5.3764968522793778e-06  1.5512450049486517e-04  1.1962192103165174e-04  9.7129061863310438e-05  4.5433863348615774e-05  1.2878671564519588e-05  3.8943324708901676e-05  4.5613672693218359e-06  6.0509923055163577e-06  1.5178651802933597e-05  3.2424401410875437e-06  4.5673659888119545e-05  1.0048344992715233e-04  2.1465119286535648e-05  4.9954223666385587e-05  1.7685973109569457e-05  5.6216317651783492e-06  1.7621553043524292e-05  4.8069508710022862e-06  8.1934824237061773e-05  2.1191907621837765e-05  1.2533873921669777e-04  3.7853062003624516e-05  1.3876358586906103e-04  5.6205300588769622e-05  1.1559180494681128e-04  6.6885659278737012e-05  2.1191907621837761e-05  1.9271554432297391e-05  1.1879880564927370e-05  4.4698145683658804e-06  2.6242459608164560e-05  1.8249458715754825e-05  1.0573249259121649e-05  4.9518263227633361e-06  1.5152032847953655e-04  1.1609368799984153e-04  3.5411463325060613e-06  4.4149352315564045e-05  1.2043420182279400e-05  3.8011959133238299e-05  3.1060518903251751e-06  5.6936903884033288e-06  1.4716960673546489e-05  2.9432310244218223e-06  4.3360070643322035e-05  9.7427031077580099e-05  1.9484339657186967e-05  4.7879844757780932e-05  1.7183479162673364e-05  5.2505891380336615e-06  1.7147623343894588e-05  4.4698145683658813e-06  8.0014262718016446e-05  1.9236339690253719e-05  1.2240078503632666e-04  3.5198231174303466e-05  1.3503155473604847e-04  5.2495601472742175e-05  1.1230761006894287e-04  6.4108192415824027e-05  1.9236339690253716e-05  1.8685368923438634e-05  1.1278107815123184e-05  4.1167596756095101e-06  2.5463616842112199e-05  1.7790667658802645e-05  9.8677811780224226e-06  4.4948767676609466e-06  1.4772003893766971e-04  1.0296291350392325e-05  3.3184281581928094e-06  4.2961960419396841e-05  1.1198752895196490e-05  3.7056339178740377e-05  1.5766870763890683e-06  5.3381544752411335e-06  1.4282885828999234e-05  2.6159950391074749e-06  4.0973119363895310e-05  9.4553433443680186e-05  1.7318020726388283e-05  4.5673659888119538e-05  1.6673495394334219e-05  4.9122336431395024e-06  1.6709695767162358e-05  4.1167596756095110e-06  7.8100647729704685e-05  1.7097594032794416e-05  1.1947345722163317e-04  3.2418046998340936e-05  1.3158302776749935e-04  4.9112709620204625e-05  1.0897446329151155e-04  6.1154245408588854e-05  1.7097594032794413e-05  1.8134246392729634e-05  1.0657253340501453e-05  3.7368692312323213e-06  2.4685525255919195e-05  1.7307954174416208e-05  9.2027696276486437e-06  3.9951248230370797e-06  1.8785674134262699e-06  1.0005193502568715e-05  3.1127684511460853e-06  4.1864768882073316e-05  1.0314202889386261e-05  3.6050890988338998e-05  0.0000000000000000e+00  4.9909117683704603e-06  1.3879078556648339e-05  2.2561420795926674e-06  3.8553718816075322e-05  9.1880208683122155e-05  1.4935775761024812e-05  4.3360070643322028e-05  1.6164003496180009e-05  4.6032817936332121e-06  1.6302107589475663e-05  3.7368692312323217e-06  7.6137198880143616e-05  1.4745670683817831e-05  1.1646989670128069e-04  2.9426542210484454e-05  1.2837341298757923e-04  4.6023796597384738e-05  1.0564453127428167e-04  5.8056490492569488e-05  1.4745670683817828e-05  1.7621553043524289e-05  1.0027958696340529e-05  3.3213945115359984e-06  2.3920654265367393e-05  1.6791065298061279e-05  8.5853070343361150e-06  5.5860527742750915e-06  1.7613764765542439e-06  9.7361049415492872e-06  2.9185841762308898e-06  4.0843590214568674e-05  9.3624186153952584e-06  3.4974258571429724e-05  1.3757914665277840e-05  4.6579082741862745e-06  1.3505802290064865e-05  1.8617886591063663e-06  3.6146276421070823e-05  8.9409100739596783e-05  1.2325135982505226e-05  4.0973119363895303e-05  1.5663168402041534e-05  4.3179932353153793e-06  1.5916735126747292e-05  3.3213945115359992e-06  7.4071371263793732e-05  1.2168259569453084e-05  1.1330972358461937e-04  2.6154823662147338e-05  1.2533873921669774e-04  4.3171470112019182e-05  1.0237117830956138e-04  5.4860508285801415e-05  1.2168259569453081e-05  1.7147623343894585e-05  9.4017744100439174e-06  2.8645076953055476e-06  2.3180704738196258e-05  1.6232649381574982e-05  3.7977550928223725e-06  5.4540016942084381e-06  1.6471417024692844e-06  9.4874577233106454e-06  2.7292982351174334e-06  3.9878071194327499e-05  8.3214808653128959e-06  3.3811129114965246e-05  1.3438262444850448e-05  4.3440015562490781e-06  1.3160881997025036e-05  1.4339411868183707e-06  3.3794989862024354e-05  8.7125710788729893e-05  9.4927638709188414e-06  3.8553718816075315e-05  1.5178651802933598e-05  4.0486232520839847e-06  1.5543645060613476e-05  2.8645076953055484e-06  7.1859286145195203e-05  9.3719383686173221e-06  1.0992581494275834e-04  2.2556999293327898e-05  1.2240078503632663e-04  4.0478298180891804e-05  9.9204479600329863e-05  5.1621078487412437e-05  9.3719383686173204e-06  1.6709695767162355e-05  8.7901964554019058e-06  2.3638174161467893e-06  2.2475614069438806e-05  1.4856789363192611e-05  3.2753407192344043e-06  5.3261592795057686e-06  1.5316191439096331e-06  9.2560366574691566e-06  2.5378784472992776e-06  3.8943324708901683e-05  7.1767885122454552e-06  3.2553570565792629e-05  1.3101216658700873e-05  4.0525394665954705e-06  1.2839857605877308e-05  9.7643874543663101e-07  3.1540121366593580e-05  8.5000512928465861e-05  6.4640743498082089e-06  3.6146276421070816e-05  1.4716960673546490e-05  3.7860481758789828e-06  1.5171904433997783e-05  2.3638174161467897e-06  6.9469481304435443e-05  6.3817985194125312e-06  1.0627004185110995e-04  1.8614237927502504e-05  1.1947345722163314e-04  3.7853062003624503e-05  9.6186963366240856e-05  4.8397659926434758e-05  6.3817985194125286e-06  1.6302107589475659e-05  8.2036971803065254e-06  1.8206014600810881e-06  2.5675505283566206e-05  1.4239852330792550e-05  2.7028405085555865e-06  5.1987792614792692e-06  1.4106419480269168e-06  9.0372292657122906e-06  2.3374203769844006e-06  3.8011959133238305e-05  5.9223501843092288e-06  3.1201764147331682e-05  1.2749519539083966e-05  3.7850610985516667e-06  1.2536330744733725e-05  4.9565764036682461e-07  2.9414562983145623e-05  8.2991149610218290e-05  3.2812788865203676e-06  3.3794989862024347e-05  1.4282885828999235e-05  3.5205130543700324e-06  1.4790483035167907e-05  1.8206014600810884e-06  6.6885659278737025e-05  3.2395142144979488e-06  1.0231747347646659e-04  1.4336601684046211e-05  1.1646989670128065e-04  3.5198231174303452e-05  9.3349941368504392e-05  4.5249430605419770e-05  3.2395142144979476e-06  1.5916735126747288e-05  7.6508319229350643e-06  2.1370950685299256e-06  2.4946012712896750e-05  1.3583715141598728e-05  2.0817155092561671e-06  5.0680820463242791e-06  1.2804693271503514e-06  8.8253955926906744e-06  2.1217255743536322e-06  3.7056339178740384e-05  4.5613672693218368e-06  2.9764063997783898e-05  1.2387280133056785e-05  3.5411463325060613e-06  1.2242477738486965e-05  0.0000000000000000e+00  2.7440984041632076e-05  8.1045827705315468e-05  0.0000000000000000e+00  3.1540121366593573e-05  1.3879078556648341e-05  3.2424401410875437e-06  1.4389173441925529e-05  1.2397341132003126e-06  6.4108192415824041e-05  0.0000000000000000e+00  9.8068679412950403e-05  9.7624738663482745e-06  1.1330972358461934e-04  3.2418046998340922e-05  9.0710741864325983e-05  4.2230299192008829e-05  0.0000000000000000e+00  1.5543645060613472e-05  5.1987792614792692e-06  2.0026838165498371e-06  2.4205646838912700e-05  1.2895635024240526e-05  1.4175390866093700e-06  4.9305699759143135e-06  1.1381034583286344e-06  8.6143281065917151e-06  1.8858266751067911e-06  3.6050890988339005e-05  3.1060518903251759e-06  2.8256371850594050e-05  1.2019641441152546e-05  3.3184281581928094e-06  1.1949687577100316e-05  9.3159047527595771e-05  2.5629806213637220e-05  7.9107541887653320e-05  9.3159047527595758e-05  2.9414562983145616e-05  1.3505802290064867e-05  2.9432310244218223e-06  1.3959451730328499e-05  6.2931104291273103e-07  6.1154245408588868e-05  1.9081065973830066e-04  9.3549917127837428e-05  4.9556050324213693e-06  1.0992581494275832e-04  2.9426542210484443e-05  8.8271086600186477e-05  3.9384306133207090e-05  2.4230997929248619e-05  8.1100416938083809e-06  5.0680820463242791e-06  1.8785674134262699e-06  2.3465995034516679e-05  1.2185736445584227e-05  7.1956800370755313e-07  4.7833222568045151e-06  9.8154739014383891e-07  8.3977640561991327e-06  1.6264147496160302e-06  3.4974258571429731e-05  1.5766870763890689e-06  2.6700872010763411e-05  1.1652357330163632e-05  3.1127684511460849e-06  1.1649272650874961e-05  9.0994584589745769e-05  2.3978184740793460e-05  7.7118779737453630e-05  9.0994584589745755e-05  2.7440984041632069e-05  1.3160881997025038e-05  2.6159950391074749e-06  1.3495206020287836e-05  0.0000000000000000e+00  5.8056490492569501e-05  1.8637735334336444e-04  8.8811166551491308e-05  0.0000000000000000e+00  1.0627004185110994e-04  2.6154823662147331e-05  8.6016760022380925e-05  3.6741804279443080e-05  6.6935476871797819e-07  7.9066333000808916e-06  4.9305699759143135e-06  1.7613764765542439e-06  2.2738910693379128e-05  1.1466187192567980e-05  0.0000000000000000e+00  4.6242446024408454e-06  8.0998170100846809e-07  8.1699078550510360e-06  1.3421320240545929e-06  3.3811129114965253e-05  0.0000000000000000e+00  2.5124226020098696e-05  1.1291313763093949e-05  2.9185841762308890e-06  1.1333193395182206e-05  8.8712344499237839e-05  2.2470091872731712e-05  7.5026318926390285e-05  8.8712344499237826e-05  2.5629806213637213e-05  1.2839857605877310e-05  2.2561420795926674e-06  1.2993270351533516e-05  1.2473428379701368e-04  5.4860508285801428e-05  1.8170281287833854e-04  8.3922154045693858e-05  1.9081065973830064e-04  1.0231747347646657e-04  2.2556999293327891e-05  8.3918612039523316e-05  1.5455560936696295e-06  6.2787148232981192e-07  7.6943827717561953e-06  4.7833222568045151e-06  1.6471417024692844e-06  2.2035516629433605e-05  1.0750194390728692e-05  8.3029530055068641e-06  4.4522521702008083e-06  6.2384423493197861e-07  7.9259197760114692e-06  1.0337040018084211e-06  3.2553570565792636e-05  6.0708773051602972e-05  2.3555372775331007e-05  1.0942033923694289e-05  2.7292982351174330e-06  1.0994736201425138e-05  8.6330895749275828e-05  2.1077507103207680e-05  7.2785715022768237e-05  8.6330895749275814e-05  2.3978184740793453e-05  1.2536330744733725e-05  1.8617886591063659e-06  1.2453717056680569e-05  1.2183619991226890e-04  5.1621078487412451e-05  1.7682507078915929e-04  7.8966678147724989e-05  1.8637735334336441e-04  9.8068679412950389e-05  1.8614237927502497e-05  2.2070999392336743e-06  1.4880712556977500e-06  5.8870288676940234e-07  7.4757699341161190e-06  4.6242446024408454e-06  1.5316191439096331e-06  2.1365259304121923e-05  1.0050902787809325e-05  8.1100416938083809e-06  4.2673697454566395e-06  4.2480520659039634e-07  7.6623296060518930e-06  7.0389821281177003e-07  3.1201764147331689e-05  5.9298261751199031e-05  2.2023114493598873e-05  1.0609208580204552e-05  2.5378784472992772e-06  1.0629087233747501e-05  8.3878061954077054e-05  1.9762625993965745e-05  7.0365100187434203e-05  8.3878061954077040e-05  2.2470091872731706e-05  1.2242477738486965e-05  1.4339411868183703e-06  1.1879880564927374e-05  1.1878041960217061e-04  4.8397659926434771e-05  1.7180111608898228e-04  7.4035695233406440e-05  1.8170281287833851e-04  9.3549917127837414e-05  2.0850675984805272e-07  2.1399662782969322e-06  1.4262782099698189e-06  5.5052232618599600e-07  7.2538986072361272e-06  4.4522521702008083e-06  1.4106419480269168e-06  2.0735093754531330e-05  9.3802866953235076e-06  7.9066333000808916e-06  4.0707398981105441e-06  2.1563866376480461e-07  7.3773397711988461e-06  3.5731122802249489e-07  2.9764063997783908e-05  5.7810998845651681e-05  2.0553688781514745e-05  1.0296291350392323e-05  2.3374203769844002e-06  1.0233752920147651e-05  8.1388667943040844e-05  1.8480913000862364e-05  6.7747966846420484e-05  8.1388667943040830e-05  2.1077507103207673e-05  1.1949687577100316e-05  9.7643874543663079e-07  1.1278107815123187e-05  1.1559180494681131e-04  4.5249430605419784e-05  1.6670227785264578e-04  6.9219732087877762e-05  1.7682507078915926e-04  7.1427889090778126e-07  1.4198216835714449e-07  2.0768482507236296e-06  1.3605588363444107e-06  5.1191135084011312e-07  7.0322412712659638e-06  4.2673697454566395e-06  1.2804693271503514e-06  2.0148868971164560e-05  8.7481284739696626e-06  7.6943827717561953e-06  3.8645374595560971e-06  0.0000000000000000e+00  7.0709913405798966e-06  0.0000000000000000e+00  2.8256371850594060e-05  5.6259084828361611e-05  1.9168530335466342e-05  1.0005193502568713e-05  2.1217255743536318e-06  9.8087902312026821e-06  7.8901674907817196e-05  1.7184751079166530e-05  6.4934692147856213e-05  7.8901674907817183e-05  1.9762625993965738e-05  1.1649272650874961e-05  4.9565764036682461e-07  1.0657253340501456e-05  1.1230761006894289e-04  4.2230299192008842e-05  1.6160835735420991e-04  6.4601254799251509e-05  1.3605588363444107e-06  6.6935476871797819e-07  7.2072669044486068e-08  2.0181313753489990e-06  1.2916400262820833e-06  4.7147727817170285e-07  6.8143501269135581e-06  4.0707398981105441e-06  1.1381034583286344e-06  1.9606967392126866e-05  8.1611701654687201e-06  7.4757699341161190e-06  3.6517965092619910e-06  1.3757914665277843e-05  6.7451775417254439e-06  6.0708773051602999e-05  2.6700872010763421e-05  5.4660651459214998e-05  1.7882412033062294e-05  9.7361049415492855e-06  1.8858266751067904e-06  9.3568254283250559e-06  7.6456938503901005e-05  1.5827388182674348e-05  6.1942662076383610e-05  7.6456938503900992e-05  1.8480913000862358e-05  1.1333193395182206e-05  0.0000000000000000e+00  1.0027958696340532e-05  1.0897446329151156e-04  3.9384306133207096e-05  1.5660098793065171e-04  1.8228848770064966e-06  1.2916400262820833e-06  6.2787148232981192e-07  0.0000000000000000e+00  1.9638539575657847e-06  1.2205358567650622e-06  4.2796982890776748e-07  6.6035584362494556e-06  3.8645374595560971e-06  9.8154739014383891e-07  1.9106231427445258e-05  7.6225112590765673e-06  7.2538986072361272e-06  3.4361634646659054e-06  1.3438262444850451e-05  6.4035020497019767e-06  5.9298261751199058e-05  2.5124226020098706e-05  5.3038392966208730e-05  1.6702125344501380e-05  9.4874577233106437e-06  1.6264147496160297e-06  8.8828574842310533e-06  7.4091857897522139e-05  1.4366852712102772e-05  5.8804970086622022e-05  7.4091857897522125e-05  1.7184751079166523e-05  1.0994736201425138e-05  2.4230997929248622e-05  9.4017744100439225e-06  1.0564453127428168e-04  3.6741804279443087e-05  2.2775526098880043e-06  1.7801562499419039e-06  1.2205358567650622e-06  5.8870288676940234e-07  2.775086682555707