<?xml version="1.0"?>
<VTKFile type="UnstructuredGrid"  version="0.1"  >
<UnstructuredGrid>
<Piece  NumberOfPoints="1089" NumberOfCells="2048">
<Points>
<DataArray  type="Float64"  NumberOfComponents="3"  format="ascii">0 0 0  0.03125 0 0  0.0625 0 0  0.09375 0 0  0.125 0 0  0.15625 0 0  0.1875 0 0  0.21875 0 0  0.25 0 0  0.28125 0 0  0.3125 0 0  0.34375 0 0  0.375 0 0  0.40625 0 0  0.4375 0 0  0.46875 0 0  0.5 0 0  0.53125 0 0  0.5625 0 0  0.59375 0 0  0.625 0 0  0.65625 0 0  0.6875 0 0  0.71875 0 0  0.75 0 0  0.78125 0 0  0.8125 0 0  0.84375 0 0  0.875 0 0  0.90625 0 0  0.9375 0 0  0.96875 0 0  1 0 0  0 0.03125 0  0.03125 0.03125 0  0.0625 0.03125 0  0.09375 0.03125 0  0.125 0.03125 0  0.15625 0.03125 0  0.1875 0.03125 0  0.21875 0.03125 0  0.25 0.03125 0  0.28125 0.03125 0  0.3125 0.03125 0  0.34375 0.03125 0  0.375 0.03125 0  0.40625 0.03125 0  0.4375 0.03125 0  0.46875 0.03125 0  0.5 0.03125 0  0.53125 0.03125 0  0.5625 0.03125 0  0.59375 0.03125 0  0.625 0.03125 0  0.65625 0.03125 0  0.6875 0.03125 0  0.71875 0.03125 0  0.75 0.03125 0  0.78125 0.03125 0  0.8125 0.03125 0  0.84375 0.03125 0  0.875 0.03125 0  0.90625 0.03125 0  0.9375 0.03125 0  0.96875 0.03125 0  1 0.03125 0  0 0.0625 0  0.03125 0.0625 0  0.0625 0.0625 0  0.09375 0.0625 0  0.125 0.0625 0  0.15625 0.0625 0  0.1875 0.0625 0  0.21875 0.0625 0  0.25 0.0625 0  0.28125 0.0625 0  0.3125 0.0625 0  0.34375 0.0625 0  0.375 0.0625 0  0.40625 0.0625 0  0.4375 0.0625 0  0.46875 0.0625 0  0.5 0.0625 0  0.53125 0.0625 0  0.5625 0.0625 0  0.59375 0.0625 0  0.625 0.0625 0  0.65625 0.0625 0  0.6875 0.0625 0  0.71875 0.0625 0  0.75 0.0625 0  0.78125 0.0625 0  0.8125 0.0625 0  0.84375 0.0625 0  0.875 0.0625 0  0.90625 0.0625 0  0.9375 0.0625 0  0.96875 0.0625 0  1 0.0625 0  0 0.09375 0  0.03125 0.09375 0  0.0625 0.09375 0  0.09375 0.09375 0  0.125 0.09375 0  0.15625 0.09375 0  0.1875 0.09375 0  0.21875 0.09375 0  0.25 0.09375 0  0.28125 0.09375 0  0.3125 0.09375 0  0.34375 0.09375 0  0.375 0.09375 0  0.40625 0.09375 0  0.4375 0.09375 0  0.46875 0.09375 0  0.5 0.09375 0  0.53125 0.09375 0  0.5625 0.09375 0  0.59375 0.09375 0  0.625 0.09375 0  0.65625 0.09375 0  0.6875 0.09375 0  0.71875 0.09375 0  0.75 0.09375 0  0.78125 0.09375 0  0.8125 0.09375 0  0.84375 0.09375 0  0.875 0.09375 0  0.90625 0.09375 0  0.9375 0.09375 0  0.96875 0.09375 0  1 0.09375 0  0 0.125 0  0.03125 0.125 0  0.0625 0.125 0  0.09375 0.125 0  0.125 0.125 0  0.15625 0.125 0  0.1875 0.125 0  0.21875 0.125 0  0.25 0.125 0  0.28125 0.125 0  0.3125 0.125 0  0.34375 0.125 0  0.375 0.125 0  0.40625 0.125 0  0.4375 0.125 0  0.46875 0.125 0  0.5 0.125 0  0.53125 0.125 0  0.5625 0.125 0  0.59375 0.125 0  0.625 0.125 0  0.65625 0.125 0  0.6875 0.125 0  0.71875 0.125 0  0.75 0.125 0  0.78125 0.125 0  0.8125 0.125 0  0.84375 0.125 0  0.875 0.125 0  0.90625 0.125 0  0.9375 0.125 0  0.96875 0.125 0  1 0.125 0  0 0.15625 0  0.03125 0.15625 0  0.0625 0.15625 0  0.09375 0.15625 0  0.125 0.15625 0  0.15625 0.15625 0  0.1875 0.15625 0  0.21875 0.15625 0  0.25 0.15625 0  0.28125 0.15625 0  0.3125 0.15625 0  0.34375 0.15625 0  0.375 0.15625 0  0.40625 0.15625 0  0.4375 0.15625 0  0.46875 0.15625 0  0.5 0.15625 0  0.53125 0.15625 0  0.5625 0.15625 0  0.59375 0.15625 0  0.625 0.15625 0  0.65625 0.15625 0  0.6875 0.15625 0  0.71875 0.15625 0  0.75 0.15625 0  0.78125 0.15625 0  0.8125 0.15625 0  0.84375 0.15625 0  0.875 0.15625 0  0.90625 0.15625 0  0.9375 0.15625 0  0.96875 0.15625 0  1 0.15625 0  0 0.1875 0  0.03125 0.1875 0  0.0625 0.1875 0  0.09375 0.1875 0  0.125 0.1875 0  0.15625 0.1875 0  0.1875 0.1875 0  0.21875 0.1875 0  0.25 0.1875 0  0.28125 0.1875 0  0.3125 0.1875 0  0.34375 0.1875 0  0.375 0.1875 0  0.40625 0.1875 0  0.4375 0.1875 0  0.46875 0.1875 0  0.5 0.1875 0  0.53125 0.1875 0  0.5625 0.1875 0  0.59375 0.1875 0  0.625 0.1875 0  0.65625 0.1875 0  0.6875 0.1875 0  0.71875 0.1875 0  0.75 0.1875 0  0.78125 0.1875 0  0.8125 0.1875 0  0.84375 0.1875 0  0.875 0.1875 0  0.90625 0.1875 0  0.9375 0.1875 0  0.96875 0.1875 0  1 0.1875 0  0 0.21875 0  0.03125 0.21875 0  0.0625 0.21875 0  0.09375 0.21875 0  0.125 0.21875 0  0.15625 0.21875 0  0.1875 0.21875 0  0.21875 0.21875 0  0.25 0.21875 0  0.28125 0.21875 0  0.3125 0.21875 0  0.34375 0.21875 0  0.375 0.21875 0  0.40625 0.21875 0  0.4375 0.21875 0  0.46875 0.21875 0  0.5 0.21875 0  0.53125 0.21875 0  0.5625 0.21875 0  0.59375 0.21875 0  0.625 0.21875 0  0.65625 0.21875 0  0.6875 0.21875 0  0.71875 0.21875 0  0.75 0.21875 0  0.78125 0.21875 0  0.8125 0.21875 0  0.84375 0.21875 0  0.875 0.21875 0  0.90625 0.21875 0  0.9375 0.21875 0  0.96875 0.21875 0  1 0.21875 0  0 0.25 0  0.03125 0.25 0  0.0625 0.25 0  0.09375 0.25 0  0.125 0.25 0  0.15625 0.25 0  0.1875 0.25 0  0.21875 0.25 0  0.25 0.25 0  0.28125 0.25 0  0.3125 0.25 0  0.34375 0.25 0  0.375 0.25 0  0.40625 0.25 0  0.4375 0.25 0  0.46875 0.25 0  0.5 0.25 0  0.53125 0.25 0  0.5625 0.25 0  0.59375 0.25 0  0.625 0.25 0  0.65625 0.25 0  0.6875 0.25 0  0.71875 0.25 0  0.75 0.25 0  0.78125 0.25 0  0.8125 0.25 0  0.84375 0.25 0  0.875 0.25 0  0.90625 0.25 0  0.9375 0.25 0  0.96875 0.25 0  1 0.25 0  0 0.28125 0  0.03125 0.28125 0  0.0625 0.28125 0  0.09375 0.28125 0  0.125 0.28125 0  0.15625 0.28125 0  0.1875 0.28125 0  0.21875 0.28125 0  0.25 0.28125 0  0.28125 0.28125 0  0.3125 0.28125 0  0.34375 0.28125 0  0.375 0.28125 0  0.40625 0.28125 0  0.4375 0.28125 0  0.46875 0.28125 0  0.5 0.28125 0  0.53125 0.28125 0  0.5625 0.28125 0  0.59375 0.28125 0  0.625 0.28125 0  0.65625 0.28125 0  0.6875 0.28125 0  0.71875 0.28125 0  0.75 0.28125 0  0.78125 0.28125 0  0.8125 0.28125 0  0.84375 0.28125 0  0.875 0.28125 0  0.90625 0.28125 0  0.9375 0.28125 0  0.96875 0.28125 0  1 0.28125 0  0 0.3125 0  0.03125 0.3125 0  0.0625 0.3125 0  0.09375 0.3125 0  0.125 0.3125 0  0.15625 0.3125 0  0.1875 0.3125 0  0.21875 0.3125 0  0.25 0.3125 0  0.28125 0.3125 0  0.3125 0.3125 0  0.34375 0.3125 0  0.375 0.3125 0  0.40625 0.3125 0  0.4375 0.3125 0  0.46875 0.3125 0  0.5 0.3125 0  0.53125 0.3125 0  0.5625 0.3125 0  0.59375 0.3125 0  0.625 0.3125 0  0.65625 0.3125 0  0.6875 0.3125 0  0.71875 0.3125 0  0.75 0.3125 0  0.78125 0.3125 0  0.8125 0.3125 0  0.84375 0.3125 0  0.875 0.3125 0  0.90625 0.3125 0  0.9375 0.3125 0  0.96875 0.3125 0  1 0.3125 0  0 0.34375 0  0.03125 0.34375 0  0.0625 0.34375 0  0.09375 0.34375 0  0.125 0.34375 0  0.15625 0.34375 0  0.1875 0.34375 0  0.21875 0.34375 0  0.25 0.34375 0  0.28125 0.34375 0  0.3125 0.34375 0  0.34375 0.34375 0  0.375 0.34375 0  0.40625 0.34375 0  0.4375 0.34375 0  0.46875 0.34375 0  0.5 0.34375 0  0.53125 0.34375 0  0.5625 0.34375 0  0.59375 0.34375 0  0.625 0.34375 0  0.65625 0.34375 0  0.6875 0.34375 0  0.71875 0.34375 0  0.75 0.34375 0  0.78125 0.34375 0  0.8125 0.34375 0  0.84375 0.34375 0  0.875 0.34375 0  0.90625 0.34375 0  0.9375 0.34375 0  0.96875 0.34375 0  1 0.34375 0  0 0.375 0  0.03125 0.375 0  0.0625 0.375 0  0.09375 0.375 0  0.125 0.375 0  0.15625 0.375 0  0.1875 0.375 0  0.21875 0.375 0  0.25 0.375 0  0.28125 0.375 0  0.3125 0.375 0  0.34375 0.375 0  0.375 0.375 0  0.40625 0.375 0  0.4375 0.375 0  0.46875 0.375 0  0.5 0.375 0  0.53125 0.375 0  0.5625 0.375 0  0.59375 0.375 0  0.625 0.375 0  0.65625 0.375 0  0.6875 0.375 0  0.71875 0.375 0  0.75 0.375 0  0.78125 0.375 0  0.8125 0.375 0  0.84375 0.375 0  0.875 0.375 0  0.90625 0.375 0  0.9375 0.375 0  0.96875 0.375 0  1 0.375 0  0 0.40625 0  0.03125 0.40625 0  0.0625 0.40625 0  0.09375 0.40625 0  0.125 0.40625 0  0.15625 0.40625 0  0.1875 0.40625 0  0.21875 0.40625 0  0.25 0.40625 0  0.28125 0.40625 0  0.3125 0.40625 0  0.34375 0.40625 0  0.375 0.40625 0  0.40625 0.40625 0  0.4375 0.40625 0  0.46875 0.40625 0  0.5 0.40625 0  0.53125 0.40625 0  0.5625 0.40625 0  0.59375 0.40625 0  0.625 0.40625 0  0.65625 0.40625 0  0.6875 0.40625 0  0.71875 0.40625 0  0.75 0.40625 0  0.78125 0.40625 0  0.8125 0.40625 0  0.84375 0.40625 0  0.875 0.40625 0  0.90625 0.40625 0  0.9375 0.40625 0  0.96875 0.40625 0  1 0.40625 0  0 0.4375 0  0.03125 0.4375 0  0.0625 0.4375 0  0.09375 0.4375 0  0.125 0.4375 0  0.15625 0.4375 0  0.1875 0.4375 0  0.21875 0.4375 0  0.25 0.4375 0  0.28125 0.4375 0  0.3125 0.4375 0  0.34375 0.4375 0  0.375 0.4375 0  0.40625 0.4375 0  0.4375 0.4375 0  0.46875 0.4375 0  0.5 0.4375 0  0.53125 0.4375 0  0.5625 0.4375 0  0.59375 0.4375 0  0.625 0.4375 0  0.65625 0.4375 0  0.6875 0.4375 0  0.71875 0.4375 0  0.75 0.4375 0  0.78125 0.4375 0  0.8125 0.4375 0  0.84375 0.4375 0  0.875 0.4375 0  0.90625 0.4375 0  0.9375 0.4375 0  0.96875 0.4375 0  1 0.4375 0  0 0.46875 0  0.03125 0.46875 0  0.0625 0.46875 0  0.09375 0.46875 0  0.125 0.46875 0  0.15625 0.46875 0  0.1875 0.46875 0  0.21875 0.46875 0  0.25 0.46875 0  0.28125 0.46875 0  0.3125 0.46875 0  0.34375 0.46875 0  0.375 0.46875 0  0.40625 0.46875 0  0.4375 0.46875 0  0.46875 0.46875 0  0.5 0.46875 0  0.53125 0.46875 0  0.5625 0.46875 0  0.59375 0.46875 0  0.625 0.46875 0  0.65625 0.46875 0  0.6875 0.46875 0  0.71875 0.46875 0  0.75 0.46875 0  0.78125 0.46875 0  0.8125 0.46875 0  0.84375 0.46875 0  0.875 0.46875 0  0.90625 0.46875 0  0.9375 0.46875 0  0.96875 0.46875 0  1 0.46875 0  0 0.5 0  0.03125 0.5 0  0.0625 0.5 0  0.09375 0.5 0  0.125 0.5 0  0.15625 0.5 0  0.1875 0.5 0  0.21875 0.5 0  0.25 0.5 0  0.28125 0.5 0  0.3125 0.5 0  0.34375 0.5 0  0.375 0.5 0  0.40625 0.5 0  0.4375 0.5 0  0.46875 0.5 0  0.5 0.5 0  0.53125 0.5 0  0.5625 0.5 0  0.59375 0.5 0  0.625 0.5 0  0.65625 0.5 0  0.6875 0.5 0  0.71875 0.5 0  0.75 0.5 0  0.78125 0.5 0  0.8125 0.5 0  0.84375 0.5 0  0.875 0.5 0  0.90625 0.5 0  0.9375 0.5 0  0.96875 0.5 0  1 0.5 0  0 0.53125 0  0.03125 0.53125 0  0.0625 0.53125 0  0.09375 0.53125 0  0.125 0.53125 0  0.15625 0.53125 0  0.1875 0.53125 0  0.21875 0.53125 0  0.25 0.53125 0  0.28125 0.53125 0  0.3125 0.53125 0  0.34375 0.53125 0  0.375 0.53125 0  0.40625 0.53125 0  0.4375 0.53125 0  0.46875 0.53125 0  0.5 0.53125 0  0.53125 0.53125 0  0.5625 0.53125 0  0.59375 0.53125 0  0.625 0.53125 0  0.65625 0.53125 0  0.6875 0.53125 0  0.71875 0.53125 0  0.75 0.53125 0  0.78125 0.531
[...]
<PointData  Scalars="theta"> 
<DataArray  type="Float64"  Name="theta"  format="ascii">-2.0853695834433664e-05  -7.0402059858122373e-05  -7.8070600588412678e-05  -4.6898736243307867e-05  0.0000000000000000e+00  -2.2068559548144889e-05  -2.2087442850737245e-05  -1.1478299104576925e-04  -1.9893783108587088e-04  -2.5919040476495925e-04  -2.9150272932928611e-04  0.0000000000000000e+00  -5.0017442382883708e-05  -5.4570410137566732e-05  -1.4683327507776612e-05  -2.5568131308176300e-05  -5.6711041910683669e-06  -7.9366155210447507e-05  -2.7477837210242466e-04  -1.0030020465702842e-04  -2.9375786094995051e-04  -1.1675824840508644e-04  -3.3702790229178057e-04  -1.6155596742383445e-04  0.0000000000000000e+00  -2.3904977104832227e-04  -1.3965908020972581e-04  -3.8735415822288577e-05  -2.5965195332317009e-04  -1.8640388755587962e-04  -1.4239587653282353e-04  -1.1711593440693503e-04  -1.0030020465702598e-04  -1.0747987523961580e-05  -1.9622316727614702e-05  -6.5865250144272992e-05  -7.1904079114962772e-05  -3.6121194089392367e-05  -1.3152029588273955e-04  -2.0853695834433159e-05  -2.0708218019799987e-05  -1.0731644868580041e-04  -1.8599708325145792e-04  -2.4300555961976502e-04  -2.7545564263395844e-04  -2.6351573140984716e-04  -3.8523207422778793e-05  -5.0260085849140307e-05  -1.3737112823104606e-05  -2.4058371937786640e-05  -4.3678587440824116e-06  -7.4447434824801274e-05  -2.5965195332317643e-04  -9.1044602600869992e-05  -2.7464914551769589e-04  -1.0377676644074712e-04  -3.1598258461056230e-04  -1.5022521265064029e-04  -3.8911562050862521e-04  -2.2301065483282948e-04  -1.2862790188415061e-04  -1.9662784680382529e-05  -2.4431989933593656e-04  -1.7389706271175943e-04  -1.3357088685206142e-04  -1.0890198877583913e-04  -4.9943807874963466e-05  -5.4558692593017344e-06  -1.8397023847215090e-05  -6.1722696607820679e-05  -6.5268842977825008e-05  -2.4596638805372985e-05  -1.2546016581553134e-04  -1.9622316727614225e-05  -1.9361164892541326e-05  -1.0015608319461131e-04  -1.7358699036555922e-04  -2.2719824106082087e-04  -2.5919040476495795e-04  -2.5137357801534012e-04  -2.6232283912253498e-05  -4.5622135652341727e-05  -1.2873125740669689e-05  -2.2556074718830307e-05  -2.9742827331567993e-06  -6.9803169959733145e-05  -2.4431989933594253e-04  -8.0922029825427889e-05  -2.5632401187944783e-04  -8.9501366077097735e-05  -2.9542816856414271e-04  -1.3835945277839915e-04  -3.7118613475406822e-04  -2.0829135931386996e-04  -1.1675824840508499e-04  0.0000000000000000e+00  -2.2906362570872637e-04  -1.6241939471490002e-04  -1.2523831530996765e-04  -6.8701253888119328e-05  -4.4390927029150587e-05  0.0000000000000000e+00  -1.7200312064388177e-05  -5.7897430217418763e-05  -5.8012085365203790e-05  -1.2485690483097951e-05  -1.1910500857627476e-04  -1.8397023847214639e-05  -1.8069349717295798e-05  -9.3406343717923637e-05  -1.6188858000307354e-04  -2.1203912552100507e-04  -2.4300555961976380e-04  -2.3864030444043584e-04  -1.3315972974388697e-05  -4.0549749424939953e-05  -1.2075313299841207e-05  -2.1088819981622656e-05  -1.5097987131195456e-06  -6.5276057524143289e-05  -2.2906362570873200e-04  -6.9790498042186845e-05  -2.3904977104832523e-04  -7.3857329218801832e-05  -2.7571661745322919e-04  -1.2559178156572659e-04  -3.5238378234157076e-04  -1.9486876537059010e-04  -1.0377676644074583e-04  -3.0342076486182496e-04  -2.1416321887231390e-04  -1.5195285596383129e-04  -5.4070597011837538e-05  -6.4245606658961462e-05  -3.8284567411398487e-05  -2.0752121656300621e-05  -1.6052673259230577e-05  -5.4285606632505750e-05  -5.0032016483491897e-05  0.0000000000000000e+00  -1.1254833446598812e-04  -1.7200312064387756e-05  -1.6851616363367390e-05  -8.7139217020474515e-05  -1.5102661708529472e-04  -1.9774934091201126e-04  -2.2719824106081976e-04  -2.2550326910918440e-04  0.0000000000000000e+00  -3.4971777326366335e-05  -1.1322017320938523e-05  -1.9681732245348263e-05  0.0000000000000000e+00  -6.0697910321281956e-05  -2.1416321887231916e-04  -5.7591744307072855e-05  -2.2301065483283224e-04  -5.6884580211202806e-05  -2.5713546613577247e-04  -1.1162816469466623e-04  -3.3298522261530835e-04  -1.8261261677384442e-04  -8.9501366077096638e-05  -2.8943988618592949e-04  -1.9987382576739466e-04  -1.1893493850729722e-05  -5.0669860775675962e-05  -5.9739730299730254e-05  -3.1592768057499130e-05  -1.9795915197338310e-05  -1.4970848182328741e-05  -5.0764891957207710e-05  -4.1286868288900263e-05  -2.1751890493494316e-04  -1.0590252603620126e-04  -1.6052673259230184e-05  -1.5720952100081760e-05  -8.1387797261734372e-05  -1.4105845924201329e-04  -1.8448128946600630e-04  -2.1203912552100401e-04  -2.1218764312590338e-04  -1.5204309644744964e-04  -2.8859023996741032e-05  -1.0587723370690242e-05  -1.8355336874555936e-05  -1.6911542738771182e-04  -5.5903596398131798e-05  -1.9987382576739957e-04  -4.4356900434801774e-05  -2.0829135931387251e-04  -3.8735415822289058e-05  -2.3988288477419956e-04  -9.6272735945731333e-05  -3.1332295031291348e-04  -1.7129519313879504e-04  -7.3857329218800910e-05  -2.7477837210241788e-04  -1.0232680851309942e-05  -1.1108491668331543e-05  -4.7529594292131265e-05  -5.5021099638061325e-05  -2.4332606765900192e-05  -1.8793157445853658e-05  -1.3966374625262120e-05  -4.7204487776371754e-05  -3.1798958826302023e-05  -2.0749617158314385e-04  -9.9289565244172178e-05  -1.4970848182328376e-05  -1.4683327507777098e-05  -7.6143050872921983e-05  -1.3196844981047871e-04  -1.7230503439243428e-04  -1.9774934091201026e-04  -1.9893783108586768e-04  -1.4503732647021264e-04  -2.2227089480805814e-05  -9.8451516227523866e-06  -1.7123780031750968e-05  -1.6132300660989685e-04  -5.0744868721169450e-05  -1.8640388755588420e-04  -3.0204722906464264e-05  -1.9486876537059248e-04  -1.9662784680382773e-05  -2.2404997726770058e-04  -7.9445124305852676e-05  -2.9375786094994693e-04  -1.6060926085755895e-04  -5.6884580211202095e-05  -5.0320497923984615e-05  -9.5461160549896318e-06  -1.0392644532485458e-05  -4.4564548883362503e-05  -4.9943807874963669e-05  -1.6569229088408854e-05  -1.7758603061040706e-05  -1.3044556806325033e-05  -4.3475971723948769e-05  -2.1653423270056561e-05  -1.9698549842738275e-04  -9.2830857921386958e-05  -1.3966374625261779e-05  -1.3737112823105061e-05  -7.1354081515347662e-05  -1.2366837705185329e-04  -1.6120145084172425e-04  -1.8448128946600535e-04  -1.8599708325145494e-04  -1.3769049244294974e-04  -1.5135482240733498e-05  -9.0675178088262326e-06  -1.5993565070147724e-05  -1.5315122501969106e-04  -4.5102923872860731e-05  -1.7389706271176368e-04  -1.5332453524319368e-05  -1.8261261677384667e-04  0.0000000000000000e+00  -2.0961187538113245e-04  -6.1188274660963540e-05  -2.7464914551769248e-04  -1.5019288316986103e-04  -6.3892927394482027e-05  -4.6944228996033605e-05  -8.9160470415740839e-06  -9.7390056824569983e-06  -4.1674297286583969e-05  -4.4390927029150777e-05  -8.4108348127722591e-06  -1.6709984487658183e-05  -1.2203946856118186e-05  -3.9464052758701982e-05  -1.0991662031089343e-05  -1.8614154036819156e-04  -8.6636999666499267e-05  -1.3044556806324713e-05  -1.2873125740670114e-05  -6.6931909691375979e-05  -1.1600402483960623e-04  -1.5106278684511157e-04  -1.7230503439243341e-04  -1.7358699036555645e-04  -1.3011069627967453e-04  -7.6830394618366888e-06  -8.2307763808041870e-06  -1.4962916797702935e-05  -1.4472032287671165e-04  -3.8898622872367432e-05  -1.6241939471490401e-04  0.0000000000000000e+00  -1.7129519313879716e-04  -4.1855478891034007e-04  -1.9642846814073631e-04  -4.1666006036097631e-05  -2.5632401187944469e-04  -4.1020299916112809e-05  -5.9675824491502876e-05  -4.3845785201855722e-05  -8.3414841820658671e-06  -9.1354304474061750e-06  -3.8751463482118694e-05  -3.8284567411398650e-05  0.0000000000000000e+00  -1.5666548826694596e-05  -1.1436387284162560e-05  -3.5076338005141950e-05  0.0000000000000000e+00  -1.7515016476070733e-04  -8.0798341063461864e-05  -1.2203946856117890e-05  -1.2075313299841603e-05  -6.2756486894565051e-05  -1.0876732933710927e-04  -1.4170066507926128e-04  -1.6120145084172344e-04  -1.6188858000307094e-04  -1.2242785702449029e-04  0.0000000000000000e+00  -7.3156575211137155e-06  -1.4021833544239338e-05  -1.3617480733177771e-04  -3.2099492125825855e-05  -1.5195285596383503e-04  -3.8911562050862987e-04  -1.6060926085756090e-04  -3.9926881906040136e-04  -1.8425480660953086e-04  -2.1150404295076495e-05  -6.8749838199509784e-06  -3.8440353918616227e-05  -5.5830228769152912e-05  -4.1020299916112572e-05  -7.8168517738993795e-06  -8.5655335966415071e-06  -3.5690622014407977e-05  -3.1592768057499266e-05  -1.0796863144034726e-04  -1.4647452274293446e-05  -1.0727616761972126e-05  -3.0251281439133119e-05  -2.4708490067820732e-04  -1.6421311523382397e-04  -7.5377152092425697e-05  -1.1436387284162282e-05  -1.1322017320938894e-05  -5.8686389900428438e-05  -1.0171318080041714e-04  -1.3286093243121088e-04  -1.5106278684511081e-04  -1.5102661708529228e-04  -1.1478299104576622e-04  -2.7430384597520850e-05  -6.3093249515123189e-06  -1.3152829895072905e-05  -1.2767152893557280e-04  -2.4722883346634451e-05  -1.4239587653282703e-04  -3.7118613475407267e-04  -1.5019288316986287e-04  -3.7904394442097211e-04  -1.7276041292665418e-04  -3.6529647191122497e-06  -6.4291040015454066e-06  -3.6058011571937140e-05  -5.2318821598877307e-05  -3.8440353918616010e-05  -7.3324020979650634e-06  -8.0100124980268219e-06  -3.2397127293916593e-05  -2.4332606765900294e-05  -1.0299370384217388e-04  -1.3670145318248343e-05  -1.0058394326964257e-05  -2.4963628494966707e-05  -2.3569983934069197e-04  -1.5353118257302681e-04  -7.0402059858121180e-05  -1.0727616761971865e-05  -1.0587723370690591e-05  -5.4570410137568175e-05  -9.4579509867497700e-05  -1.2424418365375038e-04  -1.4170066507926057e-04  -1.4105845924201104e-04  -1.0731644868579758e-04  -2.6166460293375968e-05  -5.2065114815212527e-06  -1.2332315045882223e-05  -1.1936659742721604e-04  -1.6834986971904061e-05  -1.3357088685206467e-04  -3.5238378234157504e-04  -1.3965908020972754e-04  -3.5817775544408830e-04  -5.3706799424991019e-06  -3.2468187185915902e-06  -5.9781977180172797e-06  -3.3808599531859981e-05  -4.9076360707720124e-05  -3.6058011571936937e-05  -6.8749838199509166e-06  -7.4482289329093598e-06  -2.8795131465722394e-05  -1.6569229088408925e-05  -9.7776580316824522e-05  -1.2748884057188941e-05  -9.4060531501103397e-06  -1.9226873520943691e-05  -2.2376051556775801e-04  -1.4328727872622710e-04  -6.5865250144271867e-05  -1.0058394326964012e-05  -9.8451516227527118e-06  -5.0260085849141635e-05  -8.7109007858411644e-05  -1.1553029707051389e-04  -1.3286093243121020e-04  -1.3196844981047659e-04  -1.0015608319460868e-04  -2.4841003974406380e-05  -4.0100315449228049e-06  -1.1532497833626227e-05  -1.1140222220342436e-04  -8.5457382320166619e-06  -1.2523831530997069e-04  -3.3298522261531236e-04  -1.2862790188415221e-04  -4.6168526096461923e-05  -2.7262524760569308e-06  -2.8001904538484410e-06  -5.5060009586374844e-06  -3.1615929321340139e-05  -4.6014823150695457e-05  -3.3808599531859791e-05  -6.4291040015453482e-06  -6.8599195910087242e-06  -2.4834109704345708e-05  -8.4108348127722947e-06  -9.2394026044598983e-05  -1.1893493850729541e-05  -8.7463580405640029e-06  -1.3092492517851794e-05  -2.1144260554143058e-04  -1.3363083279826175e-04  -6.1722696607819622e-05  -9.4060531501101127e-06  -9.0675178088265324e-06  -4.5622135652342933e-05  -7.9070676182009230e-05  -1.0640496625007815e-04  -1.2424418365374973e-04  -1.2366837705185134e-04  -9.3406343717921184e-05  -2.3473518512800344e-05  -2.7306211767119701e-06  -1.0723664170847308e-05  -1.0389458060030663e-04  0.0000000000000000e+00  -1.1711593440693787e-04  -3.1332295031291733e-04  -2.8879675147805947e-05  -4.3442344661805303e-05  0.0000000000000000e+00  -2.3107422522140881e-06  -4.9979127252362141e-06  -2.9398540834990147e-05  -4.3030513437724689e-05  -3.1615929321339956e-05  -5.9781977180172255e-06  -6.2268931072768910e-06  -2.0493329841577088e-05  0.0000000000000000e+00  -8.6938298955765850e-05  -1.1108491668331371e-05  -8.0555140574882000e-06  -6.6459816125146540e-06  -1.9895724041372193e-04  -1.2466483191976205e-04  -5.7897430217417780e-05  -8.7463580405637911e-06  -8.2307763808044597e-06  -4.0549749424941030e-05  -7.0279395302189605e-05  -9.6586022931095783e-05  -1.1553029707051329e-04  -1.1600402483960438e-04  -8.7139217020472225e-05  -2.2087442850736510e-05  -1.3861117817272991e-06  -9.8766397482708788e-06  -9.6923742497845725e-05  -3.0342076486183239e-04  -1.0890198877584178e-04  -3.6529647191122679e-06  -2.7018627459607307e-05  -4.0729637678176528e-05  -1.2174091790431258e-05  -1.7797232093795465e-06  -4.4422319507448304e-06  -2.7076453749957942e-05  -4.0012561186859307e-05  -2.9398540834989978e-05  -5.5060009586374344e-06  -5.5345711371362166e-06  -1.5783869759415322e-05  -1.6644576342397062e-04  -8.1509537397012735e-05  -1.0392644532485299e-05  -7.3121593182944914e-06  0.0000000000000000e+00  -1.8653358557383179e-04  -1.1643662191237963e-04  -5.4285606632504815e-05  -8.0555140574880052e-06  -7.3156575211139569e-06  -3.4971777326367256e-05  -6.0611850825105072e-05  -8.5847340809579295e-05  -1.0640496625007761e-04  -1.0876732933710754e-04  -8.1387797261732244e-05  -2.0708218019799299e-05  0.0000000000000000e+00  -8.9652333610693901e-06  -9.0526518070614871e-05  -2.8943988618593660e-04  -1.1613139739609267e-05  -3.2468187185916067e-06  -2.5319307856512837e-05  -3.8080207111333876e-05  -1.1613139739609212e-05  -1.2118981683250408e-06  -3.8311641580199024e-06  -2.4577865817275905e-05  -3.6852110057921576e-05  -2.7076453749957786e-05  -4.9979127252361684e-06  -4.7732425514278865e-06  -1.0747987523961697e-05  -1.5877635416120293e-04  -7.6207406757521177e-05  -9.7390056824568493e-06  -6.4991746631848443e-06  -2.1751890493494516e-04  -1.7439972405345610e-04  -1.0893327899308934e-04  -5.0764891957206842e-05  -7.3121593182943135e-06  -6.3093249515125264e-06  -2.8859023996741791e-05  -5.0017442382884508e-05  -7.4038289494503658e-05  -9.6586022931095296e-05  -1.0171318080041553e-04  -7.6143050872919978e-05  -1.9361164892540682e-05  -2.9878080477826112e-05  -7.9684556877778701e-06  -8.4692859405351471e-05  -3.7117226660110930e-06  -1.1024878687928594e-05  -2.8001904538484546e-06  -2.3750142821693445e-05  -3.5539420454335539e-05  -1.1024878687928542e-05  -6.1518102316624021e-07  -3.1615109904177808e-06  -2.1845235564705080e-05  -3.3451434388393171e-05  -2.4577865817275767e-05  -4.4422319507447898e-06  -3.9389225216777250e-06  -5.4558692593017929e-06  -1.5073357269338646e-04  -7.1122698008751643e-05  -9.1354304474060361e-06  -5.6051564399130399e-06  -2.0749617158314574e-04  -1.6276342988720592e-04  -1.0208198883414038e-04  -4.7204487776370941e-05  -6.4991746631846867e-06  -5.2065114815214247e-06  -2.2227089480806397e-05  -3.8523207422779402e-05  -6.1097059873723819e-05  -8.5847340809578861e-05  -9.4579509867496195e-05  -7.1354081515345778e-05  -1.8069349717295202e-05  -2.8501372399130993e-05  -6.8723250303635531e-06  -3.6213934869979010e-06  -3.4782762003446834e-06  -1.0417964356396515e-05  -2.3107422522140996e-06  -2.2268534300100770e-05  -3.3144340479481482e-05  -1.0417964356396466e-05  0.0000000000000000e+00  -2.4349814354949269e-06  -1.8840232668392517e-05  -2.9732217989329000e-05  -2.1845235564704955e-05  -3.8311641580198676e-06  -3.0337402733085819e-06  0.0000000000000000e+00  -1.4243576116183511e-04  -6.6329582432282750e-05  -8.5655335966413766e-06  -4.6254253164017043e-06  -1.9698549842738457e-04  -1.5179444315141204e-04  -9.5755453824923978e-05  -4.3475971723948024e-05  -5.6051564399129035e-06  -4.0100315449229371e-06  -1.5135482240733896e-05  -2.6232283912253915e-05  -4.7056678596641578e-05  -7.4038289494503292e-05  -8.7109007858410261e-05  -6.6931909691374217e-05  -1.6851616363366831e-05  -2.7057641618498930e-05  -1.5218417376529313e-05  -2.4659790413178994e-06  -3.2627099050116390e-06  -9.8027993637783258e-06  -1.7797232093795549e-06  -2.0824299624075312e-05  -3.0920510996169385e-05  -9.8027993637782800e-06  -1.6656347092335672e-05  -1.6580946554102376e-06  -1.5547128806387633e-05  -2.5642291794342862e-05  -1.8840232668392412e-05  -3.1615109904177520e-06  -2.0658180221621786e-06  -1.6644576342397132e-04  -1.3402514552079698e-04  -6.1879179169016546e-05  -8.0100124980267016e-06  -3.5624816142796519e-06  -1.8614154036819327e-04  -1.4160974937866896e-04  -8.9781927794318586e-05  -3.9464052758701312e-05  -4.6254253164015916e-06  -2.7306211767120603e-06  -7.6830394618368921e-06  -1.3315972974388911e-05  -3.2043130245298851e-05  -6.1097059873723494e-05  -7.9070676182007983e-05  -6.2756486894563398e-05  -1.5720952100081242e-05  -1.4067822639052882e-06  -1.4197333089990977e-05  -1.2517747360251572e-06  -3.0591718111550144e-06  -9.1906748916705134e-06  -1.2118981683250467e-06  -1.9363783889952658e-05  -2.8879675147805900e-05  -9.1906748916704694e-06  -1.5888863799003403e-05  -8.4167828063600529e-07  -1.1974328140418594e-05  -2.1160248943551924e-05  -1.5547128806387548e-05  -2.4349814354949049e-06  -1.0486458992717406e-06  -1.5877635416120363e-04  -1.2565610027090321e-04  -5.7794988997286169e-05  -7.4482289329092471e-06  -2.4258631456193013e-06  -1.7515016476070893e-04  -1.3226312981453692e-04  -8.3959085048876538e-05  -3.5076338005141347e-05  -3.5624816142795660e-06  -1.3861117817273449e-06  0.0000000000000000e+00  0.0000000000000000e+00  -1.6265661723869396e-05  -4.7056678596641341e-05  -7.0279395302188494e-05  -5.8686389900426886e-05  -4.2477495083977011e-06  -1.0834973235187893e-06  -1.3260271398972989e-05  0.0000000000000000e+00  -2.8607680028913658e-06  -8.5928287929571866e-06  -6.1518102316624307e-07  -1.7834306874729609e-05  -2.7018627459607263e-05  -8.5928287929571459e-06  -1.5084016880944428e-05  0.0000000000000000e+00  -8.1538894721474116e-06  -1.6297527828992706e-05  -1.1974328140418528e-05  -1.6580946554102223e-06  0.0000000000000000e+00  -1.5073357269338713e-04  -1.1748227079570613e-04  -5.4070597011836956e-05  -6.8599195910086209e-06  -1.2314111952540693e-06  -1.6421311523382546e-04  -1.2373990402631468e-04  -7.8070600588411960e-05  -3.0251281439132601e-05  -2.4258631456192429e-06  0.0000000000000000e+00  -2.6351573140985133e-04  -3.2188843836455515e-04  0.0000000000000000e+00  -3.2043130245298695e-05  -6.0611850825104109e-05  -1.2568226364403393e-07  -3.9673867591313522e-06  -7.3780485349476262e-07  -1.2405760491019787e-05  -7.4115996249792487e-06  -2.6601275609402237e-06  -8.0194982782573684e-06  0.0000000000000000e+00  -1.6188574964766443e-05  -2.5319307856512797e-05  -8.0194982782573294e-06  -1.4253648921237018e-05  -8.1909686372534958e-05  -4.1390590392531367e-06  -1.1097761730639162e-05  -8.1538894721473658e-06  -8.4167828063599745e-07  -1.0796863144034842e-04  -1.4243576116183571e-04  -1.0964362156780440e-04  -5.0669860775675414e-05  -6.2268931072767978e-06  0.0000000000000000e+00  -1.5353118257302822e-04  -1.1595736048625872e-04  -7.1904079114962108e-05  -2.4963628494966280e-05  -1.2314111952540394e-06  -1.5204309644745366e-04  -2.5137357801534413e-04  -3.0705661495260880e-04  -3.2188843836455358e-04  -1.6265661723869311e-05  -1.0265959677070749e-06  0.0000000000000000e+00  -3.7117226660110998e-06  -3.7452284072451114e-07  -1.1625507977260482e-05  -7.0700914384899856e-06  -2.4500134641737069e-06  -7.4790465913957270e-06  -5.3951026832046465e-05  -1.4388687618012483e-05  -2.3750142821693411e-05  -7.4790465913956915e-06  -1.3411992573273862e-05  -7.8135490535685893e-05  0.0000000000000000e+00  -5.6334208556033171e-06  -4.1390590392531130e-06  0.0000000000000000e+00  -1.0299370384217501e-04  -1.3402514552079752e-04  -1.0225449594250207e-04  -4.7529594292130750e-05  -5.5345711371361327e-06  -1.3152029588274177e-04  -1.4328727872622843e-04  -1.0877089880902214e-04  -6.5268842977824412e-05  -1.9226873520943362e-05  0.0000000000000000e+00  -1.4503732647021649e-04  -2.3864030444043963e-04  -2.9150272932928752e-04  -3.0705661495260728e-04  -1.8776665425347289e-06  -9.6001567666278446e-07  -7.4115996249792631e-06  -3.4782762003446902e-06  0.0000000000000000e+00  -1.0905016693165660e-0