<?xml version="1.0"?>
<VTKFile type="UnstructuredGrid"  version="0.1"  >
<UnstructuredGrid>
<Piece  NumberOfPoints="1089" NumberOfCells="2048">
<Points>
<DataArray  type="Float64"  NumberOfComponents="3"  format="ascii">0 0 0  0.03125 0 0  0.0625 0 0  0.09375 0 0  0.125 0 0  0.15625 0 0  0.1875 0 0  0.21875 0 0  0.25 0 0  0.28125 0 0  0.3125 0 0  0.34375 0 0  0.375 0 0  0.40625 0 0  0.4375 0 0  0.46875 0 0  0.5 0 0  0.53125 0 0  0.5625 0 0  0.59375 0 0  0.625 0 0  0.65625 0 0  0.6875 0 0  0.71875 0 0  0.75 0 0  0.78125 0 0  0.8125 0 0  0.84375 0 0  0.875 0 0  0.90625 0 0  0.9375 0 0  0.96875 0 0  1 0 0  0 0.03125 0  0.03125 0.03125 0  0.0625 0.03125 0  0.09375 0.03125 0  0.125 0.03125 0  0.15625 0.03125 0  0.1875 0.03125 0  0.21875 0.03125 0  0.25 0.03125 0  0.28125 0.03125 0  0.3125 0.03125 0  0.34375 0.03125 0  0.375 0.03125 0  0.40625 0.03125 0  0.4375 0.03125 0  0.46875 0.03125 0  0.5 0.03125 0  0.53125 0.03125 0  0.5625 0.03125 0  0.59375 0.03125 0  0.625 0.03125 0  0.65625 0.03125 0  0.6875 0.03125 0  0.71875 0.03125 0  0.75 0.03125 0  0.78125 0.03125 0  0.8125 0.03125 0  0.84375 0.03125 0  0.875 0.03125 0  0.90625 0.03125 0  0.9375 0.03125 0  0.96875 0.03125 0  1 0.03125 0  0 0.0625 0  0.03125 0.0625 0  0.0625 0.0625 0  0.09375 0.0625 0  0.125 0.0625 0  0.15625 0.0625 0  0.1875 0.0625 0  0.21875 0.0625 0  0.25 0.0625 0  0.28125 0.0625 0  0.3125 0.0625 0  0.34375 0.0625 0  0.375 0.0625 0  0.40625 0.0625 0  0.4375 0.0625 0  0.46875 0.0625 0  0.5 0.0625 0  0.53125 0.0625 0  0.5625 0.0625 0  0.59375 0.0625 0  0.625 0.0625 0  0.65625 0.0625 0  0.6875 0.0625 0  0.71875 0.0625 0  0.75 0.0625 0  0.78125 0.0625 0  0.8125 0.0625 0  0.84375 0.0625 0  0.875 0.0625 0  0.90625 0.0625 0  0.9375 0.0625 0  0.96875 0.0625 0  1 0.0625 0  0 0.09375 0  0.03125 0.09375 0  0.0625 0.09375 0  0.09375 0.09375 0  0.125 0.09375 0  0.15625 0.09375 0  0.1875 0.09375 0  0.21875 0.09375 0  0.25 0.09375 0  0.28125 0.09375 0  0.3125 0.09375 0  0.34375 0.09375 0  0.375 0.09375 0  0.40625 0.09375 0  0.4375 0.09375 0  0.46875 0.09375 0  0.5 0.09375 0  0.53125 0.09375 0  0.5625 0.09375 0  0.59375 0.09375 0  0.625 0.09375 0  0.65625 0.09375 0  0.6875 0.09375 0  0.71875 0.09375 0  0.75 0.09375 0  0.78125 0.09375 0  0.8125 0.09375 0  0.84375 0.09375 0  0.875 0.09375 0  0.90625 0.09375 0  0.9375 0.09375 0  0.96875 0.09375 0  1 0.09375 0  0 0.125 0  0.03125 0.125 0  0.0625 0.125 0  0.09375 0.125 0  0.125 0.125 0  0.15625 0.125 0  0.1875 0.125 0  0.21875 0.125 0  0.25 0.125 0  0.28125 0.125 0  0.3125 0.125 0  0.34375 0.125 0  0.375 0.125 0  0.40625 0.125 0  0.4375 0.125 0  0.46875 0.125 0  0.5 0.125 0  0.53125 0.125 0  0.5625 0.125 0  0.59375 0.125 0  0.625 0.125 0  0.65625 0.125 0  0.6875 0.125 0  0.71875 0.125 0  0.75 0.125 0  0.78125 0.125 0  0.8125 0.125 0  0.84375 0.125 0  0.875 0.125 0  0.90625 0.125 0  0.9375 0.125 0  0.96875 0.125 0  1 0.125 0  0 0.15625 0  0.03125 0.15625 0  0.0625 0.15625 0  0.09375 0.15625 0  0.125 0.15625 0  0.15625 0.15625 0  0.1875 0.15625 0  0.21875 0.15625 0  0.25 0.15625 0  0.28125 0.15625 0  0.3125 0.15625 0  0.34375 0.15625 0  0.375 0.15625 0  0.40625 0.15625 0  0.4375 0.15625 0  0.46875 0.15625 0  0.5 0.15625 0  0.53125 0.15625 0  0.5625 0.15625 0  0.59375 0.15625 0  0.625 0.15625 0  0.65625 0.15625 0  0.6875 0.15625 0  0.71875 0.15625 0  0.75 0.15625 0  0.78125 0.15625 0  0.8125 0.15625 0  0.84375 0.15625 0  0.875 0.15625 0  0.90625 0.15625 0  0.9375 0.15625 0  0.96875 0.15625 0  1 0.15625 0  0 0.1875 0  0.03125 0.1875 0  0.0625 0.1875 0  0.09375 0.1875 0  0.125 0.1875 0  0.15625 0.1875 0  0.1875 0.1875 0  0.21875 0.1875 0  0.25 0.1875 0  0.28125 0.1875 0  0.3125 0.1875 0  0.34375 0.1875 0  0.375 0.1875 0  0.40625 0.1875 0  0.4375 0.1875 0  0.46875 0.1875 0  0.5 0.1875 0  0.53125 0.1875 0  0.5625 0.1875 0  0.59375 0.1875 0  0.625 0.1875 0  0.65625 0.1875 0  0.6875 0.1875 0  0.71875 0.1875 0  0.75 0.1875 0  0.78125 0.1875 0  0.8125 0.1875 0  0.84375 0.1875 0  0.875 0.1875 0  0.90625 0.1875 0  0.9375 0.1875 0  0.96875 0.1875 0  1 0.1875 0  0 0.21875 0  0.03125 0.21875 0  0.0625 0.21875 0  0.09375 0.21875 0  0.125 0.21875 0  0.15625 0.21875 0  0.1875 0.21875 0  0.21875 0.21875 0  0.25 0.21875 0  0.28125 0.21875 0  0.3125 0.21875 0  0.34375 0.21875 0  0.375 0.21875 0  0.40625 0.21875 0  0.4375 0.21875 0  0.46875 0.21875 0  0.5 0.21875 0  0.53125 0.21875 0  0.5625 0.21875 0  0.59375 0.21875 0  0.625 0.21875 0  0.65625 0.21875 0  0.6875 0.21875 0  0.71875 0.21875 0  0.75 0.21875 0  0.78125 0.21875 0  0.8125 0.21875 0  0.84375 0.21875 0  0.875 0.21875 0  0.90625 0.21875 0  0.9375 0.21875 0  0.96875 0.21875 0  1 0.21875 0  0 0.25 0  0.03125 0.25 0  0.0625 0.25 0  0.09375 0.25 0  0.125 0.25 0  0.15625 0.25 0  0.1875 0.25 0  0.21875 0.25 0  0.25 0.25 0  0.28125 0.25 0  0.3125 0.25 0  0.34375 0.25 0  0.375 0.25 0  0.40625 0.25 0  0.4375 0.25 0  0.46875 0.25 0  0.5 0.25 0  0.53125 0.25 0  0.5625 0.25 0  0.59375 0.25 0  0.625 0.25 0  0.65625 0.25 0  0.6875 0.25 0  0.71875 0.25 0  0.75 0.25 0  0.78125 0.25 0  0.8125 0.25 0  0.84375 0.25 0  0.875 0.25 0  0.90625 0.25 0  0.9375 0.25 0  0.96875 0.25 0  1 0.25 0  0 0.28125 0  0.03125 0.28125 0  0.0625 0.28125 0  0.09375 0.28125 0  0.125 0.28125 0  0.15625 0.28125 0  0.1875 0.28125 0  0.21875 0.28125 0  0.25 0.28125 0  0.28125 0.28125 0  0.3125 0.28125 0  0.34375 0.28125 0  0.375 0.28125 0  0.40625 0.28125 0  0.4375 0.28125 0  0.46875 0.28125 0  0.5 0.28125 0  0.53125 0.28125 0  0.5625 0.28125 0  0.59375 0.28125 0  0.625 0.28125 0  0.65625 0.28125 0  0.6875 0.28125 0  0.71875 0.28125 0  0.75 0.28125 0  0.78125 0.28125 0  0.8125 0.28125 0  0.84375 0.28125 0  0.875 0.28125 0  0.90625 0.28125 0  0.9375 0.28125 0  0.96875 0.28125 0  1 0.28125 0  0 0.3125 0  0.03125 0.3125 0  0.0625 0.3125 0  0.09375 0.3125 0  0.125 0.3125 0  0.15625 0.3125 0  0.1875 0.3125 0  0.21875 0.3125 0  0.25 0.3125 0  0.28125 0.3125 0  0.3125 0.3125 0  0.34375 0.3125 0  0.375 0.3125 0  0.40625 0.3125 0  0.4375 0.3125 0  0.46875 0.3125 0  0.5 0.3125 0  0.53125 0.3125 0  0.5625 0.3125 0  0.59375 0.3125 0  0.625 0.3125 0  0.65625 0.3125 0  0.6875 0.3125 0  0.71875 0.3125 0  0.75 0.3125 0  0.78125 0.3125 0  0.8125 0.3125 0  0.84375 0.3125 0  0.875 0.3125 0  0.90625 0.3125 0  0.9375 0.3125 0  0.96875 0.3125 0  1 0.3125 0  0 0.34375 0  0.03125 0.34375 0  0.0625 0.34375 0  0.09375 0.34375 0  0.125 0.34375 0  0.15625 0.34375 0  0.1875 0.34375 0  0.21875 0.34375 0  0.25 0.34375 0  0.28125 0.34375 0  0.3125 0.34375 0  0.34375 0.34375 0  0.375 0.34375 0  0.40625 0.34375 0  0.4375 0.34375 0  0.46875 0.34375 0  0.5 0.34375 0  0.53125 0.34375 0  0.5625 0.34375 0  0.59375 0.34375 0  0.625 0.34375 0  0.65625 0.34375 0  0.6875 0.34375 0  0.71875 0.34375 0  0.75 0.34375 0  0.78125 0.34375 0  0.8125 0.34375 0  0.84375 0.34375 0  0.875 0.34375 0  0.90625 0.34375 0  0.9375 0.34375 0  0.96875 0.34375 0  1 0.34375 0  0 0.375 0  0.03125 0.375 0  0.0625 0.375 0  0.09375 0.375 0  0.125 0.375 0  0.15625 0.375 0  0.1875 0.375 0  0.21875 0.375 0  0.25 0.375 0  0.28125 0.375 0  0.3125 0.375 0  0.34375 0.375 0  0.375 0.375 0  0.40625 0.375 0  0.4375 0.375 0  0.46875 0.375 0  0.5 0.375 0  0.53125 0.375 0  0.5625 0.375 0  0.59375 0.375 0  0.625 0.375 0  0.65625 0.375 0  0.6875 0.375 0  0.71875 0.375 0  0.75 0.375 0  0.78125 0.375 0  0.8125 0.375 0  0.84375 0.375 0  0.875 0.375 0  0.90625 0.375 0  0.9375 0.375 0  0.96875 0.375 0  1 0.375 0  0 0.40625 0  0.03125 0.40625 0  0.0625 0.40625 0  0.09375 0.40625 0  0.125 0.40625 0  0.15625 0.40625 0  0.1875 0.40625 0  0.21875 0.40625 0  0.25 0.40625 0  0.28125 0.40625 0  0.3125 0.40625 0  0.34375 0.40625 0  0.375 0.40625 0  0.40625 0.40625 0  0.4375 0.40625 0  0.46875 0.40625 0  0.5 0.40625 0  0.53125 0.40625 0  0.5625 0.40625 0  0.59375 0.40625 0  0.625 0.40625 0  0.65625 0.40625 0  0.6875 0.40625 0  0.71875 0.40625 0  0.75 0.40625 0  0.78125 0.40625 0  0.8125 0.40625 0  0.84375 0.40625 0  0.875 0.40625 0  0.90625 0.40625 0  0.9375 0.40625 0  0.96875 0.40625 0  1 0.40625 0  0 0.4375 0  0.03125 0.4375 0  0.0625 0.4375 0  0.09375 0.4375 0  0.125 0.4375 0  0.15625 0.4375 0  0.1875 0.4375 0  0.21875 0.4375 0  0.25 0.4375 0  0.28125 0.4375 0  0.3125 0.4375 0  0.34375 0.4375 0  0.375 0.4375 0  0.40625 0.4375 0  0.4375 0.4375 0  0.46875 0.4375 0  0.5 0.4375 0  0.53125 0.4375 0  0.5625 0.4375 0  0.59375 0.4375 0  0.625 0.4375 0  0.65625 0.4375 0  0.6875 0.4375 0  0.71875 0.4375 0  0.75 0.4375 0  0.78125 0.4375 0  0.8125 0.4375 0  0.84375 0.4375 0  0.875 0.4375 0  0.90625 0.4375 0  0.9375 0.4375 0  0.96875 0.4375 0  1 0.4375 0  0 0.46875 0  0.03125 0.46875 0  0.0625 0.46875 0  0.09375 0.46875 0  0.125 0.46875 0  0.15625 0.46875 0  0.1875 0.46875 0  0.21875 0.46875 0  0.25 0.46875 0  0.28125 0.46875 0  0.3125 0.46875 0  0.34375 0.46875 0  0.375 0.46875 0  0.40625 0.46875 0  0.4375 0.46875 0  0.46875 0.46875 0  0.5 0.46875 0  0.53125 0.46875 0  0.5625 0.46875 0  0.59375 0.46875 0  0.625 0.46875 0  0.65625 0.46875 0  0.6875 0.46875 0  0.71875 0.46875 0  0.75 0.46875 0  0.78125 0.46875 0  0.8125 0.46875 0  0.84375 0.46875 0  0.875 0.46875 0  0.90625 0.46875 0  0.9375 0.46875 0  0.96875 0.46875 0  1 0.46875 0  0 0.5 0  0.03125 0.5 0  0.0625 0.5 0  0.09375 0.5 0  0.125 0.5 0  0.15625 0.5 0  0.1875 0.5 0  0.21875 0.5 0  0.25 0.5 0  0.28125 0.5 0  0.3125 0.5 0  0.34375 0.5 0  0.375 0.5 0  0.40625 0.5 0  0.4375 0.5 0  0.46875 0.5 0  0.5 0.5 0  0.53125 0.5 0  0.5625 0.5 0  0.59375 0.5 0  0.625 0.5 0  0.65625 0.5 0  0.6875 0.5 0  0.71875 0.5 0  0.75 0.5 0  0.78125 0.5 0  0.8125 0.5 0  0.84375 0.5 0  0.875 0.5 0  0.90625 0.5 0  0.9375 0.5 0  0.96875 0.5 0  1 0.5 0  0 0.53125 0  0.03125 0.53125 0  0.0625 0.53125 0  0.09375 0.53125 0  0.125 0.53125 0  0.15625 0.53125 0  0.1875 0.53125 0  0.21875 0.53125 0  0.25 0.53125 0  0.28125 0.53125 0  0.3125 0.53125 0  0.34375 0.53125 0  0.375 0.53125 0  0.40625 0.53125 0  0.4375 0.53125 0  0.46875 0.53125 0  0.5 0.53125 0  0.53125 0.53125 0  0.5625 0.53125 0  0.59375 0.53125 0  0.625 0.53125 0  0.65625 0.53125 0  0.6875 0.53125 0  0.71875 0.53125 0  0.75 0.53125 0  0.78125 0.531
[...]
<PointData  Scalars="theta_dt"> 
<DataArray  type="Float64"  Name="theta_dt"  format="ascii">1.2340937470853845e-04  4.3242596779347894e-04  6.3570076314023959e-04  1.1183862385596463e-03  5.8921364823183366e-04  1.2286644665525126e-04  1.3693183228191122e-04  7.3431292425193398e-04  1.2726852572673703e-03  1.6068594845587319e-03  1.6229380293199779e-03  1.1805559319065754e-03  1.1927574968920243e-03  4.4434718201048215e-04  9.0188442224199653e-05  1.5130877146475523e-04  1.3523786337918276e-04  4.7443834942998033e-04  1.5298253664579255e-03  9.6437076603211630e-04  1.8792870958567161e-03  1.3595592526268298e-03  2.0894156241994337e-03  1.1499222105530720e-03  1.7432460351845206e-03  1.5387147086669477e-03  1.1371935555721040e-03  1.9459566005621521e-03  1.5365854309888193e-03  1.1998438746755903e-03  8.5122007546832731e-04  8.3360717856307903e-04  9.6437076603209289e-04  5.3994817974764109e-04  1.2164920137138433e-04  3.9608473949698399e-04  6.9134646428731347e-04  1.1865248182442295e-03  6.2281236520980460e-04  1.2340937470853544e-04  1.3247879316982127e-04  6.9776017398588490e-04  1.2093333199123695e-03  1.5546042272300976e-03  1.6301095444801101e-03  1.2478747469948281e-03  1.2654272052130347e-03  4.8324285734923403e-04  8.2608974262783817e-05  1.4915067232651057e-04  1.4347733880593964e-04  4.5441462358364608e-04  1.5365854309888577e-03  1.0601437890563037e-03  1.7857396317928927e-03  1.4955208201030462e-03  2.0214675850844942e-03  1.2232297638951524e-03  1.8426511157268659e-03  1.4051443951249580e-03  1.2367371402410186e-03  1.9866003355143535e-03  1.5146692944532155e-03  1.0956897246962884e-03  8.1529423295042722e-04  8.8674964519954976e-04  5.8155690955762290e-04  5.5122567211270579e-04  1.1769315519399856e-04  3.6896853858339718e-04  7.6000505823693005e-04  1.2356648462107770e-03  6.4821908264151137e-04  1.2164920137138131e-04  1.2588424187928379e-04  6.5218772135164902e-04  1.1303487525847640e-03  1.4772188807330644e-03  1.6068594845587239e-03  1.2987799679860337e-03  1.3178349823599253e-03  5.3123438813112121e-04  7.6953513902912947e-05  1.4430027511502021e-04  1.4941946520151110e-04  4.5100786353432398e-04  1.5146692944532517e-03  1.1661625675919052e-03  1.6691085344316301e-03  1.6332865515561368e-03  1.9208426370982098e-03  1.3303044786393589e-03  1.9178193667726217e-03  1.2793743935310146e-03  1.3595592526268127e-03  1.3593313078684457e-03  1.4654120728292799e-03  9.9761802551745450e-04  8.0918194765609809e-04  4.4388823252703054e-04  6.3971501399279706e-04  9.2969934621812530e-05  1.1183460583752072e-04  3.5339617839920661e-04  8.3600871810544843e-04  1.2614732504088130e-03  6.6311573941581713e-04  1.1769315519399574e-04  1.1766242890639766e-04  6.0123761813817608e-04  1.0420438309710035e-03  1.3807380410656971e-03  1.5546042272300896e-03  1.3286270982642570e-03  1.3453596125178142e-03  5.8436003158360370e-04  7.3705681877623850e-05  1.3711727213985836e-04  1.5254027742239801e-04  4.6462157703794203e-04  1.4654120728293148e-03  1.2735881794308911e-03  1.5387147086669661e-03  1.7612632499636671e-03  1.7953876263931273e-03  1.4624188955727156e-03  1.9618925784798567e-03  1.1718553258181215e-03  1.4955208201030280e-03  1.4368444273106416e-03  1.3924665481545642e-03  9.1377786068410000e-04  3.2515686625297430e-04  4.5728703931921099e-04  6.9864485678707467e-04  9.8271357170649442e-05  1.0453040954284655e-04  3.5074675666040120e-04  9.1302092081287805e-04  9.7448919709228958e-04  6.6604594654155443e-04  1.1183460583751798e-04  1.0847042375072788e-04  5.4904633360985087e-04  9.5158773768527891e-04  1.2728722481352974e-03  1.4772188807330576e-03  1.3344980983919423e-03  6.8115621961601291e-04  6.3819063434145671e-04  7.3153108172031996e-05  1.2816180201860746e-04  7.5764061565251244e-04  4.9424120759208932e-04  1.3924665481545985e-03  1.3733805950233251e-03  1.4051443951249749e-03  1.8685696278190817e-03  1.6551286459214600e-03  1.6086668542142650e-03  1.9705618819991131e-03  1.0916294011917502e-03  1.6332865515561162e-03  1.4954583893916733e-03  1.3015210941484492e-03  7.4938465318320787e-05  3.0289643045596469e-04  4.8643909301457512e-04  7.5338740153271322e-04  1.0228019312628112e-04  9.6364301870477509e-05  3.6133407950679014e-04  9.8456097170676994e-04  1.0300574732675751e-03  6.5654621186425849e-04  1.0453040954284400e-04  9.9054494710204744e-05  4.9990294415262868e-04  8.6641414862163684e-04  1.1623787665791076e-03  1.3807380410656893e-03  1.3154643096151986e-03  7.1999777583138817e-04  6.8819626884558704e-04  7.5361241415539048e-05  1.1814956654238646e-04  8.0084353991048728e-04  5.3750432780038000e-04  1.3015210941484813e-03  1.4570549106441770e-03  1.2793743935310305e-03  1.9459566005621759e-03  1.5114528553783347e-03  1.7568554737614672e-03  1.9424559905941933e-03  1.0455570550554738e-03  1.7612632499636454e-03  1.5298253664578891e-03  6.5865683392863139e-05  6.8230961850896255e-05  2.9011265129778635e-04  5.2901925960495454e-04  7.9928813396555457e-04  1.0463068383630946e-04  8.7999261916940104e-05  3.8436913097780691e-04  1.0445461395423225e-03  1.0720771578846460e-03  6.3519525269278637e-04  9.6364301870475151e-05  9.0188442224202581e-05  4.5789092736223764e-04  7.9360040310344471e-04  1.0583379435628950e-03  1.2728722481352916e-03  1.2726852572673504e-03  7.4936902962119292e-04  7.3012517916887611e-04  8.0165521369691657e-05  1.0789342577826209e-04  8.3351277813066831e-04  5.9088464186136437e-04  1.1998438746756190e-03  1.5173989657848023e-03  1.1718553258181354e-03  1.9866003355143783e-03  1.3761675219352918e-03  1.8945144552163589e-03  1.8792870958566931e-03  1.0377184824841078e-03  1.8685696278190583e-03  3.2390280050687844e-04  6.0148119290246647e-05  6.2496808154795735e-05  2.8793766805792061e-04  5.8155690955762529e-04  8.3239072116176455e-04  1.0509303084019435e-04  8.0122728124428972e-05  4.1801466207155055e-04  1.0878061082511216e-03  1.0967144539535936e-03  6.0357639828475314e-04  8.7999261916937990e-05  8.2608974262786609e-05  4.2654343743209959e-04  7.3927003934596820e-04  9.6939485575964158e-04  1.1623787665791022e-03  1.2093333199123509e-03  7.6659020303384781e-04  7.6036337661048576e-04  8.7182764234717373e-05  9.8236228710695835e-05  8.5266765046520848e-04  6.4997555823729472e-04  1.0956897246963148e-03  1.5490917390790712e-03  1.0916294011917638e-03  1.8751341190613321e-03  1.2605139261439389e-03  2.0099392697568229e-03  1.7857396317928704e-03  1.0690421095429362e-03  4.0257623064593532e-04  2.9578595832869864e-04  5.4764452611396712e-05  5.8218238855368702e-05  2.9662909283513435e-04  6.3971501399279977e-04  8.4977624139268720e-04  1.0359410135252362e-04  7.3389186266696496e-05  4.5952828864045622e-04  1.1105262979667467e-03  1.1015606675432513e-03  5.6415532232272601e-04  8.0122728124427061e-05  7.6953513902915563e-05  4.0854112193008534e-04  7.0806906115342171e-04  9.0302949741041848e-04  1.0583379435628896e-03  1.1303487525847452e-03  7.6997764800299992e-04  7.7624451575685220e-04  9.5841007703377086e-05  8.9980421982023423e-05  8.5643545852158106e-04  7.0985059107102095e-04  9.9761802551747900e-04  1.7432460351845429e-03  1.0455570550554863e-03  1.9820598509264049e-03  1.1742183800971472e-03  2.0931810784474039e-03  1.6691085344316089e-03  2.4667810067938276e-04  3.6654291382405817e-04  2.6931109881993048e-04  5.0162029021900733e-05  5.5761131297565041e-05  3.1553920070701030e-04  6.9864485678707759e-04  4.8370170397338800e-04  1.0022520912770584e-04  6.8364918171390221e-05  5.0548302456131049e-04  1.1069454700847674e-03  1.0858492378334212e-03  5.2008247188450895e-04  7.3389186266694693e-05  7.3705681877626303e-05  4.0547827689723699e-04  7.0276064618500565e-04  8.6491703219966176e-04  9.6939485575963671e-04  1.0420438309709868e-03  7.5899554774181289e-04  1.2288869084903478e-04  1.0542550621690233e-04  8.3820307851263179e-05  8.4422022071940122e-04  7.6547116476725940e-04  9.1377786068412179e-04  1.8426511157268882e-03  1.0377184824841208e-03  2.0629150769594568e-03  1.1246603564781857e-03  2.1368997805678949e-03  4.4420214243247110e-05  2.2979036865643484e-04  3.3573852023106225e-04  2.4667810067938135e-04  4.6727906164962438e-05  5.5343088425371648e-05  3.4315974339126570e-04  7.5338740153271648e-04  5.1128381566128544e-04  9.5236182081314633e-05  6.5479568830183492e-05  5.5204756427197177e-04  1.1700667974182970e-03  1.0505372943260102e-03  4.7493597497639140e-04  6.8364918171388541e-05  7.3153108172034409e-05  4.1771767567481440e-04  7.2397354039888259e-04  8.5843272329243702e-04  9.0302949741041414e-04  9.5158773768526394e-04  7.3431292425191479e-04  1.2989616997994164e-04  1.1513718778131080e-04  8.0282661986873021e-05  8.1676608095195133e-04  8.1210811017881830e-04  8.5122007546834758e-04  1.9178193667726473e-03  1.0690421095429494e-03  2.1103227184173100e-03  1.1162287440857619e-03  4.2535941153876294e-05  4.5761042462378317e-05  2.2009203935899769e-04  3.1275365800037492e-04  2.2979036865643349e-04  4.4755749437866882e-05  5.7013624598120855e-05  3.7723942224757384e-04  7.9928813396555783e-04  5.3214088940858602e-04  8.9016070130565691e-05  6.4988666540599836e-05  5.9530343053263118e-04  1.2177979571684971e-03  9.9824347503393016e-04  4.3242596779347162e-04  6.5479568830181906e-05  7.5361241415541501e-05  4.4434718201049353e-04  7.7012686141832761e-04  8.8434459335486417e-04  8.6491703219965764e-04  8.6641414862162307e-04  6.9776017398586691e-04  1.3519509381397567e-04  1.2415879953837889e-04  7.9680780464326070e-05  7.7610896380638232e-04  8.4574163779866176e-04  8.1529423295044706e-04  1.9618925784798797e-03  1.1371935555721184e-03  2.1196479120442276e-03  2.6980761305263329e-04  4.6789711794753627e-05  4.8678309413580637e-05  2.1844200274497109e-04  2.9955385340455778e-04  2.2009203935899647e-04  4.4420214243246697e-05  6.0648243782006232e-05  4.1496493002776360e-04  8.3239072116176812e-04  5.4436996503652059e-04  8.2061971161314167e-05  6.6950355368667410e-05  6.3157277008574870e-04  1.2457840480969904e-03  9.3304571055914198e-04  3.9608473949697738e-04  6.4988666540598223e-05  8.0165521369694314e-05  4.8324285734924676e-04  8.3753947386215480e-04  9.4072157073228255e-04  8.5843272329243301e-04  7.9360040310343235e-04  6.5218772135163222e-04  1.3830199850723159e-04  1.3172327410378802e-04  8.2085952091457781e-05  7.2541935681716483e-04  8.6340600860467041e-04  8.0918194765611749e-04  1.9705618819991365e-03  1.2367371402410338e-03  2.7321914455907939e-04  2.7544288215875288e-04  5.1099928532116965e-05  5.2939337266673427e-05  2.2503569452502647e-04  2.9730808918959644e-04  2.1844200274496989e-04  4.5761042462377904e-05  6.5957052964360293e-05  4.5319104252596076e-04  8.4977624139269089e-04  5.4677545273010514e-04  7.4938465318319662e-05  7.1218441246493182e-05  6.5772941098167915e-04  1.2512889774447388e-03  8.6015446514079330e-04  3.6896853858339078e-04  6.6950355368665770e-05  8.7182764234720232e-05  5.3123438813113520e-04  9.2071670210177095e-04  1.0230670930641893e-03  8.8434459335485919e-04  7.3927003934595617e-04  6.0123761813816025e-04  1.3891313390553553e-04  1.3717860489314619e-04  8.7318932423828056e-05  6.6874826367501524e-04  1.3593313078684784e-03  8.3360717856309930e-04  1.9424559905942167e-03  1.7738573985645224e-04  2.6932225216667600e-04  5.4540183243996213e-05  5.5103880034791388e-05  5.8196817631603451e-05  2.3938172248141410e-04  3.0628236098347906e-04  2.2503569452502519e-04  4.8678309413580190e-05  7.2507341063774664e-05  4.8870097390639174e-04  7.4568046582870610e-04  5.3897685902051925e-04  6.8230961850895239e-05  7.7452506592248595e-05  6.7146691152125161e-04  1.2334419905332917e-03  7.8548753633569165e-04  3.5339617839920059e-04  7.1218441246491502e-05  9.5841007703380258e-05  5.8436003158361910e-04  1.0127921933151352e-03  1.1246693312391097e-03  9.4072157073227735e-04  7.0806906115341076e-04  5.4904633360983656e-04  1.3693183228190664e-04  1.4004375145231364e-04  9.4962345016469485e-05  6.1069662177115722e-04  1.4368444273106778e-03  8.8674964519957166e-04  4.2535941153876490e-05  1.6247818076244172e-04  2.6056386120185479e-04  5.7650226920412703e-05  5.8461128176109702e-05  6.4016740913381989e-05  2.6033586405499280e-04  3.2580786480406848e-04  2.3938172248141274e-04  5.2939337266672953e-05  7.9758376077891367e-05  5.1847547318433353e-04  7.8820138672482576e-04  5.2144926887779460e-04  6.2496808154794759e-05  8.5144424429680688e-05  9.7448919709229847e-04  1.1933303135418460e-03  7.1518104752236447e-04  3.5074675666039502e-04  7.7452506592246711e-05  1.0542550621690581e-04  6.3819063434147362e-04  1.1060894951289773e-03  1.2371409317760151e-03  1.0230670930641843e-03  7.0276064618499416e-04  4.9990294415261556e-04  1.3247879316981696e-04  1.3385441906396022e-04  1.0439318964183459e-04  5.5603511128152249e-04  1.4954583893917112e-03  6.0001983415721642e-05  4.6789711794753864e-05  1.5135482620143612e-04  2.4759347019781308e-04  6.0001983415721371e-05  6.0882300855650421e-05  6.9913892607042363e-05  2.8619018645917305e-04  3.5432726910161213e-04  2.6033586405499123e-04  5.8196817631602922e-05  8.7105629872140922e-05  5.3994817974764694e-04  8.2035490683846643e-04  4.9549248087611111e-04  5.8218238855367801e-05  9.3659220224680213e-05  1.0300574732675838e-03  1.1339285197081940e-03  6.5507698426742753e-04  3.6133407950678385e-04  8.5144424429678601e-05  1.1513718778131459e-04  6.8819626884560514e-04  1.1927574968920432e-03  1.3511049923799563e-03  1.1246693312391041e-03  7.2397354039887120e-04  4.5789092736222588e-04  1.2588424187927962e-04  1.4148719667506402e-04  1.1483294184102882e-04  5.0930572769926883e-04  2.2320672919814085e-05  6.1380882890694282e-05  5.1099928532117209e-05  1.4496687811709936e-04  2.3142252477299687e-04  6.1380882890694024e-05  6.2153903777597614e-05  7.5392018377528407e-05  3.1481039280333923e-04  3.8951601071122261e-04  2.8619018645917142e-04  6.4016740913381407e-05  9.3930819801687625e-05  5.5122567211271175e-04  8.3920739947180689e-04  4.6313063441766903e-04  5.5761131297564181e-05  1.0228700447758687e-04  1.0720771578846557e-03  1.0598688274505823e-03  6.1023001757585312e-04  3.8436913097780008e-04  9.3659220224677950e-05  1.2415879953838296e-04  7.3012517916889530e-04  1.2654272052130548e-03  1.4569712630364896e-03  1.2371409317760089e-03  7.7012686141831525e-04  4.2654343743208842e-04  1.1766242890639376e-04  1.4725895945134849e-04  1.2541122601800834e-04  1.1895712080606092e-04  2.0792586146794784e-05  6.1652115632943445e-05  5.5103880034791653e-05  1.4388005708799263e-04  2.1334337188942220e-04  6.1652115632943147e-05  7.4620779786268502e-05  7.9985337639409515e-05  3.4381037959763751e-04  4.2846922828600464e-04  3.1481039280333739e-04  6.9913892607041713e-05  9.9653630427593039e-05  7.4568046582870892e-04  8.4291572873582035e-04  4.2695001823557060e-04  5.5343088425370794e-05  1.1030173594682346e-04  1.0967144539536047e-03  9.7706992709803604e-04  5.8447518854522456e-04  4.1801466207154329e-04  1.0228700447758439e-04  1.3172327410379236e-04  7.6036337661050570e-04  1.3178349823599461e-03  1.5457384072320552e-03  1.3511049923799496e-03  8.3753947386214179e-04  4.0854112193007471e-04  1.0847042375072433e-04  1.5064310261317742e-04  9.7957854371526472e-05  1.2388374025248752e-04  1.9915032624530130e-05  6.0772778788619070e-05  5.8461128176109993e-05  1.4822308973653781e-04  1.9482379778327548e-04  6.0772778788618745e-05  7.8875878880184781e-05  8.3297937315436949e-05  3.7074975359617057e-04  4.6793934187218318e-04  3.4381037959763555e-04  7.5392018377527730e-05  1.0378079415049456e-04  7.8820138672482923e-04  8.3089332124293132e-04  3.8988801611050553e-04  5.7013624598120001e-05  1.1702195778524665e-04  1.1015606675432623e-03  8.9225398572837292e-04  5.8009336054318304e-04  4.5952828864044836e-04  1.1030173594682076e-04  1.3717860489315071e-04  7.7624451575687258e-04  1.3453596125178357e-03  1.6097552970538364e-03  1.4569712630364824e-03  9.2071670210175621e-04  4.0547827689722636e-04  9.9054494710201533e-05  3.3547298938699271e-05  8.9454483832070993e-05  1.2647120695254390e-04  1.9765729028199653e-05  5.8796440954046339e-05  6.0882300855650713e-05  1.5767231330807233e-04  1.7738573985645194e-04  5.8796440954046041e-05  8.2093504731610078e-05  8.5037718811764105e-05  3.9333798005806580e-04  5.0460488103966014e-04  3.7074975359616851e-04  7.9985337639408796e-05  1.0594838570385355e-04  8.2035490683846990e-04  8.0387257379648284e-04  3.5499038097933669e-04  6.0648243782005338e-05  1.2186843228779977e-04  1.0858492378334310e-03  8.1239117191607446e-04  5.9760353154973580e-04  5.0548302456130171e-04  1.1702195778524381e-04  1.4004375145231827e-04  1.1805559319065927e-03  1.4420668674705883e-03  1.6433770477200427e-03  1.5457384072320476e-03  1.0127921933151187e-03  4.1771767567480345e-04  2.6764198410582665e-05  3.5591195066106055e-05  8.1447697758569695e-05  3.3204119751686394e-05  2.0362359362028815e-05  5.5869661985917509e-05  6.2153903777597912e-05  1.7147406868456120e-04  1.6247818076244147e-04  5.5869661985917238e-05  8.3980087209872278e-05  3.6695709060840452e-04  4.0962810652078936e-04  5.3534833863104828e-04  3.9333798005806357e-04  8.3297937315436176e-05  4.8370170397339299e-04  8.3920739947181079e-04  7.6385727178386619e-04  3.2515686625297099e-04  6.5957052964359331e-05  1.2441380676301409e-04  1.0505372943260193e-03  7.4411753609511251e-04  6.3570076314023395e-04  5.5204756427196223e-04  1.2186843228779683e-04  6.8115621961603091e-04  1.2478747469948468e-03  1.5242978149186865e-03  1.4420668674705816e-03  1.6097552970538282e-03  1.1060894951289600e-03  1.2698121409657013e-05  2.4368620213467770e-05  3.7065207487944251e-05  7.4602804993291374e-05  3.5097517546166255e-05  2.1660459991274498e-05  5.2220675386410709e-05  2.4170171707875194e-04  1.8850340066623047e-04  1.5135482620143585e-04  5.2220675386410459e-05  8.4351182382758885e-05  3.8788207676140744e-04  4.1818370132983788e-04  5.5751983637612073e-04  4.0962810652078703e-04  8.5037718811763319e-05  5.1128381566129097e-04  8.4291572873582371e-04  7.1396785327659676e-04  3.0289643045596144e-04  7.2507341063773580e-05  5.8921364823184353e-04  9.9824347503393949e-04  6.9317479935220385e-04  6.9134646428730719e-04  5.9530343053262099e-04  1.2441380676301105e-04  7.1999777583140704e-04  1.2987799679860541e-03  1.5864793097455625e-03  1.5242978149186792e-03  1.6433770477200342e-03  6.6329774761749173e-06  3.3204119751686468e-05  2.2320672919814139e-05  3.7839360656957974e-05  6.9495451825672929e-05  3.6529269323524496e-05  2.3556495914573705e-05  4.8141100267607895e-05  2.5548426880610660e-04  2.0735452302787766e-04  1.4496687811709912e-04  4.8141100267607665e-05  8.3148091430080328e-05  4.0370515747012307e-04  4.9944291872626174e-04  5.6916433474454267e-04  4.1818370132983549e-04  9.2969934621813858e-05  5.3214088940859144e-04  8.3089332124293501e-04  6.5819137263363968e-04  2.9011265129778310e-04  7.9758376077890161e-05  6.2281236520981523e-04  9.3304571055915077e-04  6.6391927613724318e-04  7.6000505823692311e-04  6.3157277008573786e-04  1.2288869084903874e-04  7.4936902962121276e-04  1.3286270982642789e-03  1.6229380293199865e-03  1.5864793097455545e-03  1.2012187494477354e-05  6.8331945063813658e-06  3.5097517546166303e-05  2.0792586146794825e-05  1.1097875407734727e-04  6.6562388179792838e-05  3.7368744744567684e-05  2.5895924799252808e-05  4.3962143752289013e-05  2.6590637502684031e-04  2.2645579340208337e-04  1.4388005708799239e-04  4.3962143752288810e-05  8.0444105825977123e-05  4.1298266461221894e-04  5.2792264135877751e-04  3.6695709060840230e-04  7.4620779786267933e-05  9.8271357170650920e-05  5.4436996503652666e-04  8.0387257379648587e-04  6.0105613663562142e-04  2.8793766805791752e-04  8.7105629872139594e-05  6.4821908264152232e-04  8.6015446514080111e-04  6.5894185343002025e-04  8.3600871810544084e-04  6.5772941098166777e-04  1.2989616997994592e-04  7.6659020303386743e-04  1.3344980983919636e-03  1.6301095444801194e-03  1.2438331319149777e-05  1.1414242837460882e-05  7.2688107299626403e-06  3.6529269323524537e-05  1.991503262