<?xml version="1.0"?>
<VTKFile type="UnstructuredGrid"  version="0.1"  >
<UnstructuredGrid>
<Piece  NumberOfPoints="1089" NumberOfCells="2048">
<Points>
<DataArray  type="Float64"  NumberOfComponents="3"  format="ascii">0 0 0  0.03125 0 0  0.0625 0 0  0.09375 0 0  0.125 0 0  0.15625 0 0  0.1875 0 0  0.21875 0 0  0.25 0 0  0.28125 0 0  0.3125 0 0  0.34375 0 0  0.375 0 0  0.40625 0 0  0.4375 0 0  0.46875 0 0  0.5 0 0  0.53125 0 0  0.5625 0 0  0.59375 0 0  0.625 0 0  0.65625 0 0  0.6875 0 0  0.71875 0 0  0.75 0 0  0.78125 0 0  0.8125 0 0  0.84375 0 0  0.875 0 0  0.90625 0 0  0.9375 0 0  0.96875 0 0  1 0 0  0 0.03125 0  0.03125 0.03125 0  0.0625 0.03125 0  0.09375 0.03125 0  0.125 0.03125 0  0.15625 0.03125 0  0.1875 0.03125 0  0.21875 0.03125 0  0.25 0.03125 0  0.28125 0.03125 0  0.3125 0.03125 0  0.34375 0.03125 0  0.375 0.03125 0  0.40625 0.03125 0  0.4375 0.03125 0  0.46875 0.03125 0  0.5 0.03125 0  0.53125 0.03125 0  0.5625 0.03125 0  0.59375 0.03125 0  0.625 0.03125 0  0.65625 0.03125 0  0.6875 0.03125 0  0.71875 0.03125 0  0.75 0.03125 0  0.78125 0.03125 0  0.8125 0.03125 0  0.84375 0.03125 0  0.875 0.03125 0  0.90625 0.03125 0  0.9375 0.03125 0  0.96875 0.03125 0  1 0.03125 0  0 0.0625 0  0.03125 0.0625 0  0.0625 0.0625 0  0.09375 0.0625 0  0.125 0.0625 0  0.15625 0.0625 0  0.1875 0.0625 0  0.21875 0.0625 0  0.25 0.0625 0  0.28125 0.0625 0  0.3125 0.0625 0  0.34375 0.0625 0  0.375 0.0625 0  0.40625 0.0625 0  0.4375 0.0625 0  0.46875 0.0625 0  0.5 0.0625 0  0.53125 0.0625 0  0.5625 0.0625 0  0.59375 0.0625 0  0.625 0.0625 0  0.65625 0.0625 0  0.6875 0.0625 0  0.71875 0.0625 0  0.75 0.0625 0  0.78125 0.0625 0  0.8125 0.0625 0  0.84375 0.0625 0  0.875 0.0625 0  0.90625 0.0625 0  0.9375 0.0625 0  0.96875 0.0625 0  1 0.0625 0  0 0.09375 0  0.03125 0.09375 0  0.0625 0.09375 0  0.09375 0.09375 0  0.125 0.09375 0  0.15625 0.09375 0  0.1875 0.09375 0  0.21875 0.09375 0  0.25 0.09375 0  0.28125 0.09375 0  0.3125 0.09375 0  0.34375 0.09375 0  0.375 0.09375 0  0.40625 0.09375 0  0.4375 0.09375 0  0.46875 0.09375 0  0.5 0.09375 0  0.53125 0.09375 0  0.5625 0.09375 0  0.59375 0.09375 0  0.625 0.09375 0  0.65625 0.09375 0  0.6875 0.09375 0  0.71875 0.09375 0  0.75 0.09375 0  0.78125 0.09375 0  0.8125 0.09375 0  0.84375 0.09375 0  0.875 0.09375 0  0.90625 0.09375 0  0.9375 0.09375 0  0.96875 0.09375 0  1 0.09375 0  0 0.125 0  0.03125 0.125 0  0.0625 0.125 0  0.09375 0.125 0  0.125 0.125 0  0.15625 0.125 0  0.1875 0.125 0  0.21875 0.125 0  0.25 0.125 0  0.28125 0.125 0  0.3125 0.125 0  0.34375 0.125 0  0.375 0.125 0  0.40625 0.125 0  0.4375 0.125 0  0.46875 0.125 0  0.5 0.125 0  0.53125 0.125 0  0.5625 0.125 0  0.59375 0.125 0  0.625 0.125 0  0.65625 0.125 0  0.6875 0.125 0  0.71875 0.125 0  0.75 0.125 0  0.78125 0.125 0  0.8125 0.125 0  0.84375 0.125 0  0.875 0.125 0  0.90625 0.125 0  0.9375 0.125 0  0.96875 0.125 0  1 0.125 0  0 0.15625 0  0.03125 0.15625 0  0.0625 0.15625 0  0.09375 0.15625 0  0.125 0.15625 0  0.15625 0.15625 0  0.1875 0.15625 0  0.21875 0.15625 0  0.25 0.15625 0  0.28125 0.15625 0  0.3125 0.15625 0  0.34375 0.15625 0  0.375 0.15625 0  0.40625 0.15625 0  0.4375 0.15625 0  0.46875 0.15625 0  0.5 0.15625 0  0.53125 0.15625 0  0.5625 0.15625 0  0.59375 0.15625 0  0.625 0.15625 0  0.65625 0.15625 0  0.6875 0.15625 0  0.71875 0.15625 0  0.75 0.15625 0  0.78125 0.15625 0  0.8125 0.15625 0  0.84375 0.15625 0  0.875 0.15625 0  0.90625 0.15625 0  0.9375 0.15625 0  0.96875 0.15625 0  1 0.15625 0  0 0.1875 0  0.03125 0.1875 0  0.0625 0.1875 0  0.09375 0.1875 0  0.125 0.1875 0  0.15625 0.1875 0  0.1875 0.1875 0  0.21875 0.1875 0  0.25 0.1875 0  0.28125 0.1875 0  0.3125 0.1875 0  0.34375 0.1875 0  0.375 0.1875 0  0.40625 0.1875 0  0.4375 0.1875 0  0.46875 0.1875 0  0.5 0.1875 0  0.53125 0.1875 0  0.5625 0.1875 0  0.59375 0.1875 0  0.625 0.1875 0  0.65625 0.1875 0  0.6875 0.1875 0  0.71875 0.1875 0  0.75 0.1875 0  0.78125 0.1875 0  0.8125 0.1875 0  0.84375 0.1875 0  0.875 0.1875 0  0.90625 0.1875 0  0.9375 0.1875 0  0.96875 0.1875 0  1 0.1875 0  0 0.21875 0  0.03125 0.21875 0  0.0625 0.21875 0  0.09375 0.21875 0  0.125 0.21875 0  0.15625 0.21875 0  0.1875 0.21875 0  0.21875 0.21875 0  0.25 0.21875 0  0.28125 0.21875 0  0.3125 0.21875 0  0.34375 0.21875 0  0.375 0.21875 0  0.40625 0.21875 0  0.4375 0.21875 0  0.46875 0.21875 0  0.5 0.21875 0  0.53125 0.21875 0  0.5625 0.21875 0  0.59375 0.21875 0  0.625 0.21875 0  0.65625 0.21875 0  0.6875 0.21875 0  0.71875 0.21875 0  0.75 0.21875 0  0.78125 0.21875 0  0.8125 0.21875 0  0.84375 0.21875 0  0.875 0.21875 0  0.90625 0.21875 0  0.9375 0.21875 0  0.96875 0.21875 0  1 0.21875 0  0 0.25 0  0.03125 0.25 0  0.0625 0.25 0  0.09375 0.25 0  0.125 0.25 0  0.15625 0.25 0  0.1875 0.25 0  0.21875 0.25 0  0.25 0.25 0  0.28125 0.25 0  0.3125 0.25 0  0.34375 0.25 0  0.375 0.25 0  0.40625 0.25 0  0.4375 0.25 0  0.46875 0.25 0  0.5 0.25 0  0.53125 0.25 0  0.5625 0.25 0  0.59375 0.25 0  0.625 0.25 0  0.65625 0.25 0  0.6875 0.25 0  0.71875 0.25 0  0.75 0.25 0  0.78125 0.25 0  0.8125 0.25 0  0.84375 0.25 0  0.875 0.25 0  0.90625 0.25 0  0.9375 0.25 0  0.96875 0.25 0  1 0.25 0  0 0.28125 0  0.03125 0.28125 0  0.0625 0.28125 0  0.09375 0.28125 0  0.125 0.28125 0  0.15625 0.28125 0  0.1875 0.28125 0  0.21875 0.28125 0  0.25 0.28125 0  0.28125 0.28125 0  0.3125 0.28125 0  0.34375 0.28125 0  0.375 0.28125 0  0.40625 0.28125 0  0.4375 0.28125 0  0.46875 0.28125 0  0.5 0.28125 0  0.53125 0.28125 0  0.5625 0.28125 0  0.59375 0.28125 0  0.625 0.28125 0  0.65625 0.28125 0  0.6875 0.28125 0  0.71875 0.28125 0  0.75 0.28125 0  0.78125 0.28125 0  0.8125 0.28125 0  0.84375 0.28125 0  0.875 0.28125 0  0.90625 0.28125 0  0.9375 0.28125 0  0.96875 0.28125 0  1 0.28125 0  0 0.3125 0  0.03125 0.3125 0  0.0625 0.3125 0  0.09375 0.3125 0  0.125 0.3125 0  0.15625 0.3125 0  0.1875 0.3125 0  0.21875 0.3125 0  0.25 0.3125 0  0.28125 0.3125 0  0.3125 0.3125 0  0.34375 0.3125 0  0.375 0.3125 0  0.40625 0.3125 0  0.4375 0.3125 0  0.46875 0.3125 0  0.5 0.3125 0  0.53125 0.3125 0  0.5625 0.3125 0  0.59375 0.3125 0  0.625 0.3125 0  0.65625 0.3125 0  0.6875 0.3125 0  0.71875 0.3125 0  0.75 0.3125 0  0.78125 0.3125 0  0.8125 0.3125 0  0.84375 0.3125 0  0.875 0.3125 0  0.90625 0.3125 0  0.9375 0.3125 0  0.96875 0.3125 0  1 0.3125 0  0 0.34375 0  0.03125 0.34375 0  0.0625 0.34375 0  0.09375 0.34375 0  0.125 0.34375 0  0.15625 0.34375 0  0.1875 0.34375 0  0.21875 0.34375 0  0.25 0.34375 0  0.28125 0.34375 0  0.3125 0.34375 0  0.34375 0.34375 0  0.375 0.34375 0  0.40625 0.34375 0  0.4375 0.34375 0  0.46875 0.34375 0  0.5 0.34375 0  0.53125 0.34375 0  0.5625 0.34375 0  0.59375 0.34375 0  0.625 0.34375 0  0.65625 0.34375 0  0.6875 0.34375 0  0.71875 0.34375 0  0.75 0.34375 0  0.78125 0.34375 0  0.8125 0.34375 0  0.84375 0.34375 0  0.875 0.34375 0  0.90625 0.34375 0  0.9375 0.34375 0  0.96875 0.34375 0  1 0.34375 0  0 0.375 0  0.03125 0.375 0  0.0625 0.375 0  0.09375 0.375 0  0.125 0.375 0  0.15625 0.375 0  0.1875 0.375 0  0.21875 0.375 0  0.25 0.375 0  0.28125 0.375 0  0.3125 0.375 0  0.34375 0.375 0  0.375 0.375 0  0.40625 0.375 0  0.4375 0.375 0  0.46875 0.375 0  0.5 0.375 0  0.53125 0.375 0  0.5625 0.375 0  0.59375 0.375 0  0.625 0.375 0  0.65625 0.375 0  0.6875 0.375 0  0.71875 0.375 0  0.75 0.375 0  0.78125 0.375 0  0.8125 0.375 0  0.84375 0.375 0  0.875 0.375 0  0.90625 0.375 0  0.9375 0.375 0  0.96875 0.375 0  1 0.375 0  0 0.40625 0  0.03125 0.40625 0  0.0625 0.40625 0  0.09375 0.40625 0  0.125 0.40625 0  0.15625 0.40625 0  0.1875 0.40625 0  0.21875 0.40625 0  0.25 0.40625 0  0.28125 0.40625 0  0.3125 0.40625 0  0.34375 0.40625 0  0.375 0.40625 0  0.40625 0.40625 0  0.4375 0.40625 0  0.46875 0.40625 0  0.5 0.40625 0  0.53125 0.40625 0  0.5625 0.40625 0  0.59375 0.40625 0  0.625 0.40625 0  0.65625 0.40625 0  0.6875 0.40625 0  0.71875 0.40625 0  0.75 0.40625 0  0.78125 0.40625 0  0.8125 0.40625 0  0.84375 0.40625 0  0.875 0.40625 0  0.90625 0.40625 0  0.9375 0.40625 0  0.96875 0.40625 0  1 0.40625 0  0 0.4375 0  0.03125 0.4375 0  0.0625 0.4375 0  0.09375 0.4375 0  0.125 0.4375 0  0.15625 0.4375 0  0.1875 0.4375 0  0.21875 0.4375 0  0.25 0.4375 0  0.28125 0.4375 0  0.3125 0.4375 0  0.34375 0.4375 0  0.375 0.4375 0  0.40625 0.4375 0  0.4375 0.4375 0  0.46875 0.4375 0  0.5 0.4375 0  0.53125 0.4375 0  0.5625 0.4375 0  0.59375 0.4375 0  0.625 0.4375 0  0.65625 0.4375 0  0.6875 0.4375 0  0.71875 0.4375 0  0.75 0.4375 0  0.78125 0.4375 0  0.8125 0.4375 0  0.84375 0.4375 0  0.875 0.4375 0  0.90625 0.4375 0  0.9375 0.4375 0  0.96875 0.4375 0  1 0.4375 0  0 0.46875 0  0.03125 0.46875 0  0.0625 0.46875 0  0.09375 0.46875 0  0.125 0.46875 0  0.15625 0.46875 0  0.1875 0.46875 0  0.21875 0.46875 0  0.25 0.46875 0  0.28125 0.46875 0  0.3125 0.46875 0  0.34375 0.46875 0  0.375 0.46875 0  0.40625 0.46875 0  0.4375 0.46875 0  0.46875 0.46875 0  0.5 0.46875 0  0.53125 0.46875 0  0.5625 0.46875 0  0.59375 0.46875 0  0.625 0.46875 0  0.65625 0.46875 0  0.6875 0.46875 0  0.71875 0.46875 0  0.75 0.46875 0  0.78125 0.46875 0  0.8125 0.46875 0  0.84375 0.46875 0  0.875 0.46875 0  0.90625 0.46875 0  0.9375 0.46875 0  0.96875 0.46875 0  1 0.46875 0  0 0.5 0  0.03125 0.5 0  0.0625 0.5 0  0.09375 0.5 0  0.125 0.5 0  0.15625 0.5 0  0.1875 0.5 0  0.21875 0.5 0  0.25 0.5 0  0.28125 0.5 0  0.3125 0.5 0  0.34375 0.5 0  0.375 0.5 0  0.40625 0.5 0  0.4375 0.5 0  0.46875 0.5 0  0.5 0.5 0  0.53125 0.5 0  0.5625 0.5 0  0.59375 0.5 0  0.625 0.5 0  0.65625 0.5 0  0.6875 0.5 0  0.71875 0.5 0  0.75 0.5 0  0.78125 0.5 0  0.8125 0.5 0  0.84375 0.5 0  0.875 0.5 0  0.90625 0.5 0  0.9375 0.5 0  0.96875 0.5 0  1 0.5 0  0 0.53125 0  0.03125 0.53125 0  0.0625 0.53125 0  0.09375 0.53125 0  0.125 0.53125 0  0.15625 0.53125 0  0.1875 0.53125 0  0.21875 0.53125 0  0.25 0.53125 0  0.28125 0.53125 0  0.3125 0.53125 0  0.34375 0.53125 0  0.375 0.53125 0  0.40625 0.53125 0  0.4375 0.53125 0  0.46875 0.53125 0  0.5 0.53125 0  0.53125 0.53125 0  0.5625 0.53125 0  0.59375 0.53125 0  0.625 0.53125 0  0.65625 0.53125 0  0.6875 0.53125 0  0.71875 0.53125 0  0.75 0.53125 0  0.78125 0.531
[...]
<PointData  Scalars="theta"> 
<DataArray  type="Float64"  Name="theta"  format="ascii">1.3684088933786341e-04  4.2162073087385354e-05  7.9125421462596172e-05  5.1104725935799628e-04  7.4102223010992393e-05  2.9908923960010798e-04  5.9722395650797875e-04  5.5240994694074935e-04  1.6114180395610433e-04  7.5839691180555705e-05  3.8323301335493886e-06  5.6040979938573177e-05  6.3554457191204424e-04  2.2785227427958148e-04  9.9020055667976359e-04  3.7232431963341814e-04  1.1745764166069593e-03  5.5124692894952486e-04  4.5342229871726567e-05  7.9335815467795163e-04  3.2746222485642497e-04  6.8698371201414931e-04  4.8551343634926577e-04  2.4314470796249325e-04  9.2154423566257777e-05  1.1941003195215804e-04  9.5173389043345613e-05  6.4386622026891464e-05  4.2810289875093315e-05  3.0154530738175467e-05  1.7314541180759959e-05  4.6095912034446383e-06  1.5395542421211140e-04  1.0546574169162831e-04  1.2836017019263879e-04  3.9348936267550837e-05  7.5839691180555732e-05  4.9896639559063164e-04  5.7073196299984196e-05  2.8027820973980475e-04  5.6970535315174937e-04  5.3755294315796986e-04  1.5069088797329313e-04  7.2345185714868220e-05  0.0000000000000000e+00  5.2280893551026798e-05  6.2052066316238596e-04  2.1373112120818630e-04  9.6651899588884739e-04  3.4924950624228533e-04  1.1468101045613492e-03  5.1426085061913535e-04  0.0000000000000000e+00  7.5680217238670701e-04  3.0622453162288538e-04  6.6850736186038046e-04  4.6314217757201194e-04  2.2785227427958146e-04  7.0976919347328008e-05  1.1658724736217136e-04  9.1221257343523186e-05  6.0090619390749528e-05  4.0157120586928940e-05  2.7371900955343888e-05  1.3335581140488637e-05  0.0000000000000000e+00  5.5954514136720196e-04  9.0958008034723066e-05  1.2035265952551180e-04  3.6697124614985680e-05  7.2345185714868247e-05  4.8727056701479340e-04  3.8863853486812458e-05  2.6290795739175934e-04  5.4084705318226730e-04  5.2382455333733233e-04  1.4012215736304668e-04  6.8680556167054481e-05  1.3283012207465137e-04  4.8830215722428519e-05  6.0597558884826911e-04  2.0039790241918758e-04  9.4222072608288394e-04  3.2746222485642503e-04  1.1199287463967143e-03  4.8031826863905575e-04  1.1552335892273760e-03  7.1846652398974728e-04  2.8474742292375311e-04  6.5143456972260535e-04  4.3968181193747638e-04  2.1373112120818627e-04  4.8331559703808361e-05  1.1385442913768406e-04  8.7018007337996326e-05  5.6040979938573170e-05  3.7651993248920939e-05  2.4328622699329910e-05  9.0808313745272637e-06  3.2683844858664280e-04  5.4449623732778926e-04  7.5059363213741961e-05  1.1254713977750381e-04  3.4234920012601026e-05  6.8680556167054508e-05  4.7561704139663223e-04  1.9727981918846951e-05  2.4650693306990304e-04  5.1107367997475827e-04  5.1104725935799584e-04  1.2905440220588194e-04  6.4899724194633843e-05  1.2907473468843438e-04  4.5683526584847609e-05  5.9148312300555145e-04  1.8740101650940199e-04  9.1665548825868408e-04  3.0622453162288543e-04  1.0931446161411040e-03  4.4936587049484745e-04  1.1225727019123699e-03  6.7891528333865016e-04  2.6225622797027850e-04  6.3554457191204424e-04  4.1547753717561197e-04  2.0039790241918755e-04  2.4533957659910015e-05  1.1113149531710542e-04  8.2610129222381002e-05  5.2280893551026791e-05  3.5210058205565967e-05  2.0982008218646517e-05  3.9348936267550837e-05  3.1596887071468120e-04  5.3059052497508147e-04  5.7810381345971677e-05  1.0465362732124301e-04  3.1975324366325051e-05  6.4899724194633870e-05  4.6366003771090386e-04  0.0000000000000000e+00  2.3051962758214895e-04  4.8089555440111997e-04  4.9896639559063121e-04  1.1714539170587838e-04  6.1067493924945733e-05  1.2560328412504867e-04  4.2810289875093322e-05  5.7661324815612262e-04  1.7425761489957644e-04  8.8928026987319898e-04  2.8474742292375322e-04  1.0656629805675521e-03  4.2110328632638419e-04  1.0923812345589661e-03  6.3882636567912999e-04  2.3805548689360539e-04  6.2052066316238596e-04  3.9094421882798959e-04  1.8740101650940194e-04  0.0000000000000000e+00  1.0833765156582778e-04  7.8062480874134185e-05  4.8830215722428512e-05  3.2740594889299125e-05  1.2921231661547617e-05  3.6697124614985680e-05  3.0421684216548400e-04  5.1764819327821028e-04  3.9365837841593278e-05  9.6387406294545124e-05  2.9914788602442959e-05  6.1067493924945760e-05  4.5107956818235095e-04  8.6963645710473776e-04  2.1435209497910359e-04  4.5086658752615985e-04  4.8727056701479291e-04  1.0412086615493600e-04  5.7254204874077458e-05  1.2239554269386795e-04  4.0157120586928940e-05  5.6096802362048774e-04  1.6049362030889195e-04  8.5970571649618605e-04  2.6225622797027855e-04  1.0367483889177620e-03  3.9500539468196753e-04  1.0644832654162922e-03  5.9893559189620423e-04  2.1158786638854538e-04  6.0597558884826911e-04  3.6653215909962977e-04  1.7425761489957642e-04  1.3283012207465135e-04  1.0539813033590309e-04  7.3453009788623149e-05  4.5683526584847602e-05  5.6368926954830554e-05  1.1484615935783412e-05  3.4234920012601026e-05  2.9158405649264737e-04  5.0541128722323488e-04  1.9982798088273392e-05  8.7492873337826423e-05  2.8033316763410573e-05  5.7254204874077485e-05  4.3760842024684939e-04  8.4505000238650643e-04  1.9742117877498514e-04  4.2153807427007712e-04  4.7561704139663174e-04  8.9798131871050548e-05  5.3529864341705605e-05  1.1941003195215807e-04  3.7651993248920946e-05  5.4421514061200123e-04  1.4568343036749787e-04  8.2773014212609414e-04  2.3805548689360544e-04  1.0057866874705391e-03  3.7036371723060842e-04  1.0385180533397417e-03  5.5997530756276301e-04  1.8248210786106768e-04  5.9148312300555145e-04  3.4268953339982585e-04  1.6049362030889192e-04  1.2907473468843435e-04  1.0225049540399623e-04  6.8866321519991594e-05  1.5300655830590481e-04  5.5036397888713804e-05  9.9048067344660414e-06  3.1975324366325051e-05  2.7814858407365986e-04  4.9356438966080562e-04  0.0000000000000000e+00  7.7765190944864627e-05  2.6295950926854144e-05  5.3529864341705633e-05  4.2305499539163909e-04  8.2232247701947894e-04  1.7920335086080318e-04  3.9341222108364813e-04  4.6366003771090337e-04  7.4102223010992339e-05  4.9958246029003301e-05  1.1658724736217137e-04  3.5210058205565974e-05  5.2611632489566558e-04  1.2948597237500222e-04  7.9335815467795174e-04  2.1158786638854544e-04  9.7233751167950550e-04  3.4634363059366652e-04  1.0139680828769174e-03  5.2261264864800758e-04  1.5058587044611084e-04  5.7661324815612262e-04  3.1982461064849669e-04  1.4568343036749785e-04  1.2560328412504864e-04  9.8849978338006801e-05  5.7017137507630797e-05  1.4345224068127726e-04  5.3746338516326465e-05  8.1735352643210236e-06  2.9914788602442959e-05  2.6405902842725840e-04  4.8176034146154380e-04  4.2458465216156470e-04  6.7067909913975804e-05  2.4655526897865843e-05  4.9958246029003328e-05  4.0732004538698337e-04  8.0132145067131127e-04  1.5927906200818501e-04  3.6689930330011258e-04  4.5107956818235046e-04  5.7073196299984148e-05  4.6591449578379111e-05  1.1385442913768407e-04  3.2740594889299132e-05  5.0654815016887191e-04  1.1167404625197153e-04  7.5680217238670712e-04  1.8248210786106774e-04  9.3617275224967096e-04  3.2205276218383994e-04  9.9020055667976337e-04  4.8739262892397801e-04  1.1598055489779259e-04  5.6096802362048774e-04  2.9827092432955561e-04  1.2948597237500220e-04  1.2239554269386792e-04  2.3149286416977748e-04  5.0677825704617150e-05  1.3412078641335262e-04  5.2460945194461080e-05  6.2952198146098463e-06  2.8033316763410573e-05  2.4952270442231368e-04  4.6964889532500877e-04  4.1258074956624253e-04  5.5345040189291368e-05  2.3056482864625848e-05  4.6591449578379131e-05  3.9040583775470239e-04  7.8177536471191135e-04  1.3736883626404775e-04  3.4228208430338623e-04  4.3760842024684891e-04  3.8863853486812424e-05  4.3465382269639301e-05  1.1113149531710544e-04  3.0154530738175477e-05  4.8551343634926577e-04  9.2154423566257805e-05  7.1846652398974739e-04  1.5058587044611087e-04  8.9729762078838763e-04  2.9661495001610236e-04  9.6651899588884717e-04  4.5469087404002953e-04  7.8976675306132599e-05  5.4421514061200123e-04  2.7825834704054770e-04  1.1167404625197151e-04  2.3050884571817146e-05  2.2567313781605004e-04  4.3706648279218045e-05  1.2517198254921222e-04  5.1142077995748036e-05  4.2867145420825760e-06  2.6295950926854144e-05  2.3478876721799052e-04  4.5690593035885670e-04  4.0148443641881625e-04  4.2626499106313904e-05  2.1439412585902820e-05  4.3465382269639328e-05  3.7241690197934297e-04  7.6329464398633472e-04  1.1335799450946717e-04  3.1969055766317440e-04  4.2305499539163860e-04  1.9727981918846934e-05  4.0596551598965975e-05  1.0833765156582780e-04  2.7371900955343899e-05  4.6314217757201194e-04  7.0976919347328022e-05  6.7891528333865027e-04  1.1598055489779262e-04  8.5595236487577737e-04  2.6924362060910909e-04  9.4222072608288383e-04  4.2468006872767300e-04  4.0089962334247638e-05  5.2611632489566558e-04  2.5989255710204794e-04  6.0931264923214832e-05  2.1565452508479923e-05  2.1954995746234892e-04  3.6067117771452691e-05  1.1673636640849303e-04  4.9754442009198887e-05  2.1760123968705162e-06  2.4655526897865843e-05  2.2012765411582845e-04  4.4326078255206461e-04  3.9123105594675224e-04  2.9026410352349312e-05  1.9745988978390008e-05  4.0596551598965989e-05  3.5355220532243373e-04  7.4540293146258397e-04  8.7307813584102984e-05  2.9908923960010798e-04  4.0732004538698293e-04  0.0000000000000000e+00  3.7980451586918839e-05  1.0539813033590310e-04  2.4328622699329917e-05  4.3968181193747638e-04  4.8331559703808367e-05  6.3882636567913010e-04  7.8976675306132612e-05  8.1259428517980992e-04  2.3930842328733848e-04  9.1665548825868397e-04  3.9731307598676879e-04  0.0000000000000000e+00  5.0654815016887191e-04  1.8343407815328623e-05  5.9292525363098193e-05  2.0209106918680841e-05  2.1299326510732574e-04  2.7778730635913760e-05  1.0890390482867548e-04  4.8268563472392049e-05  0.0000000000000000e+00  2.3056482864625848e-05  2.0580852513093362e-04  4.2851937861268361e-04  3.8168802444158578e-04  1.4734321155118820e-05  1.7923848965673075e-05  3.7980451586918852e-05  3.3408932446643829e-04  7.2757593195619294e-04  5.9452042208252016e-05  2.8027820973980475e-04  3.9040583775470195e-04  1.1043254314814948e-04  3.5591694940693199e-05  1.0225049540399625e-04  2.0982008218646524e-05  4.1547753717561197e-04  2.4533957659910022e-05  5.9893559189620434e-04  4.0089962334247651e-05  7.6786135601509436e-04  2.0638946011294649e-04  8.8928026987319887e-04  3.7232431963341809e-04  7.0697127947157536e-04  0.0000000000000000e+00  1.7119499403149995e-05  5.7778272837844245e-05  1.8956646774768829e-05  2.0590980570620905e-04  1.8915858712543846e-05  1.0171595786917468e-04  4.6663308914063048e-05  8.6980697834695056e-05  2.1439412585902820e-05  1.9207657369956792e-04  4.1258118837277243e-04  3.7266513870944031e-04  0.0000000000000000e+00  1.5931029398252340e-05  3.5591694940693206e-05  3.1436185662450569e-04  7.0928468638916840e-04  3.0178911983622702e-05  2.6290795739175934e-04  3.7241690197934249e-04  1.0731038250349277e-04  3.3385898338850946e-05  9.8849978338006814e-05  1.7314541180759965e-05  3.9094421882798959e-04  0.0000000000000000e+00  5.5997530756276312e-04  0.0000000000000000e+00  7.2252030768305692e-04  1.7031443173416816e-04  8.5970571649618584e-04  3.4924950624228528e-04  6.1210553603436712e-05  3.7842598705637531e-05  1.5965778558076157e-05  5.6368926954830554e-05  1.7774071595613877e-05  1.9825127304840131e-04  9.6020256660126507e-06  9.5161235654450644e-05  4.4927731174022728e-05  8.4521570263396223e-05  1.9745988978390008e-05  1.7913210951232787e-04  3.9544850864256113e-04  3.6392982583656182e-04  8.6980697834695056e-05  1.3739577200761007e-05  3.3385898338850953e-05  2.9473189395811295e-04  6.9003969294905701e-04  0.0000000000000000e+00  2.4650693306990304e-04  3.5355220532243330e-04  1.0442428175962454e-04  3.1303181116843882e-05  9.5173389043345626e-05  1.3335581140488642e-05  3.6653215909962977e-04  1.1552335892273762e-03  5.2261264864800769e-04  1.3065830923353107e-03  6.7740336246005495e-04  1.3117540338354635e-04  8.2773014212609403e-04  1.2270772588746762e-04  5.7126464527755049e-05  3.6772708716671368e-05  1.4894549848503195e-05  5.5036397888713804e-05  1.6621327091345873e-05  1.9001877078468667e-04  0.0000000000000000e+00  8.9176129510770517e-05  4.3062080361765875e-05  8.2248372077729890e-05  1.7923848965673075e-05  1.6711318680098241e-04  3.7722721906004631e-04  3.5522610795230361e-04  8.4521570263396223e-05  1.1338022212639899e-05  3.1303181116843889e-05  2.7555981845265237e-04  6.6943218278728658e-04  8.6963645710473776e-04  2.3051962758214895e-04  3.3408932446643791e-04  1.0175742398313400e-04  2.9273000817162157e-05  9.1221257343523200e-05  9.0808313745272653e-06  3.4268953339982585e-04  1.1225727019123701e-03  4.8739262892397807e-04  1.2696432357172252e-03  6.3333881200260502e-04  8.9323570233845140e-05  1.3911469999666672e-05  1.1940751531417409e-04  5.3276586013263261e-05  3.5783710825644547e-05  1.3911469999666672e-05  5.3746338516326465e-05  1.5455587538172896e-05  1.8126317562397546e-04  2.7669226729417804e-04  8.3649435607373304e-05  4.1077886164168114e-05  8.0147857647723162e-05  1.5931029398252340e-05  1.5608327263171267e-04  3.5811885684427358e-04  3.4629573012231627e-04  8.2248372077729890e-05  8.7324933193918762e-06  2.9273000817162167e-05  2.5717392291688460e-04  6.4716905777164235e-04  8.4505000238650643e-04  2.1435209497910359e-04  3.1436185662450531e-04  9.9275324752525368e-05  2.7219934012983907e-05  8.7018007337996339e-05  4.6095912034446400e-06  3.1982461064849669e-04  1.0923812345589663e-03  4.5469087404002959e-04  1.2354963227945034e-03  5.9108119512067225e-04  3.1660774793831305e-05  1.3014994919880629e-05  1.1635800560799248e-04  4.9701977466749764e-05  3.4869842270563361e-05  1.3014994919880629e-05  5.2460945194461080e-05  1.4234805172972629e-05  1.7208132913677166e-04  2.6886959398611342e-04  7.8431121024898499e-05  3.8997094831456089e-05  7.8192865785553818e-05  1.3739577200761007e-05  1.4602504267548704e-04  3.3840458399257738e-04  3.3689970172577773e-04  8.0147857647723162e-05  5.9463699764701709e-06  2.7219934012983917e-05  2.3984240470531661e-04  6.2309849276349254e-04  8.2232247701947894e-04  1.9742117877498514e-04  2.9473189395811257e-04  9.6928513079368560e-05  2.5069927399330836e-05  8.2610129222381016e-05  0.0000000000000000e+00  2.9827092432955561e-04  1.0644832654162924e-03  4.2468006872767305e-04  1.2039433839497380e-03  2.6063695598340627e-06  3.0864823496982879e-05  1.2196424989391289e-05  1.1351976437811797e-04  4.6421514949126317e-05  3.4019286062639357e-05  1.2196424989391289e-05  5.1142077995748036e-05  1.2921231661547617e-05  1.6260833375982044e-04  2.6163837630611292e-04  7.3344439380871511e-05  3.6850323296705252e-05  7.6344431336806739e-05  1.1338022212639899e-05  1.3684088933786341e-04  3.1842230662128474e-04  3.2683844858664280e-04  7.8192865785553818e-05  3.0184829566214850e-06  2.5069927399330843e-05  2.2375010649644609e-04  5.9722395650797875e-04  8.0132145067131127e-04  1.7920335086080318e-04  2.7555981845265204e-04  9.4656497803178924e-05  2.2756499701167814e-05  7.8062480874134199e-05  7.0697127947157536e-04  2.7825834704054770e-04  1.0385180533397419e-03  3.9731307598676885e-04  6.9942416167439898e-06  2.3165866974190512e-06  3.0027369457542758e-05  1.1440551102490097e-05  1.1083622233138394e-04  4.3430045944139480e-05  3.3215089674027372e-05  1.1440551102490097e-05  4.9754442009198887e-05  1.1484615935783412e-05  1.5300655830590481e-04  2.5495647888989245e-04  6.8200414868165976e-05  3.4674367602935099e-05  7.4554909257713208e-05  8.7324933193918762e-06  1.2836017019263879e-04  2.9853879384960448e-04  3.1596887071468120e-04  7.6344431336806739e-05  0.0000000000000000e+00  2.2756499701167821e-05  2.0898200520375832e-04  5.6970535315174937e-04  7.8177536471191135e-04  1.5927906200818501e-04  2.5717392291688433e-04  9.2392700240291714e-05  2.0226373611769119e-05  7.3453009788623162e-05  6.8698371201414931e-04  2.5989255710204794e-04  1.0139680828769176e-03  1.1370298063209815e-05  6.5574942858475096e-06  1.9979199696246062e-06  2.9130624925959366e-05  1.0726853583598410e-05  1.0823820878210093e-04  4.0698540483823166e-05  3.2436524226751763e-05  1.0726853583598410e-05  4.8268563472392049e-05  9.9048067344660414e-06  1.4345224068127726e-04  2.4873749991695604e-04  6.2813504563736261e-05  3.2509166809063290e-05  7.2771859749270269e-05  5.9463699764701709e-06  1.2035265952551180e-04  2.7911908253119800e-04  3.0421684216548400e-04  7.4554909257713208e-05  1.1043254314814951e-04  2.0226373611769122e-05  1.9551490504875126e-04  5.4084705318226730e-04  7.6329464398633472e-04  1.3736883626404775e-04  2.3984240470531631e-04  9.0069949453096338e-05  1.7444059312377093e-05  6.8866321519991608e-05  6.6850736186038046e-04  2.4314470796249330e-04  2.6063695598340635e-06  1.1101510745832299e-05  6.1309344931948613e-06  1.6487014602913651e-06  2.8161835612887827e-05  1.0031159214974844e-05  1.0564959205806268e-04  3.8176246941783491e-05  3.1660774793831305e-05  1.0031159214974844e-05  4.6663308914063048e-05  8.1735352643210236e-06  1.3412078641335262e-04  2.4285748824424576e-04  5.7017137507630797e-05  3.0394471340199131e-05  7.0942376531671049e-05  3.0184829566214850e-06  1.1254713977750381e-04  2.6049570586374779e-04  2.9158405649264737e-04  7.2771859749270269e-05  1.0731038250349280e-04  1.7444059312377097e-05  1.8321811790280177e-04  5.1107367997475827e-04  7.4540293146258397e-04  1.1335799450946717e-04  2.2375010649644582e-04  8.7626085064594750e-05  1.4394994043294480e-05  6.4386622026891478e-05  6.5143456972260535e-04  5.7218664303637657e-06  2.3165866974190521e-06  1.0841290082149355e-05  5.7218664303637632e-06  1.2698223920937066e-06  2.7114394783125483e-05  9.3276221871065783e-06  1.0299356325403905e-04  3.5794692724782799e-05  3.0864823496982879e-05  9.3276221871065783e-06  4.4927731174022728e-05  6.2952198146098463e-06  1.2517198254921222e-04  2.3716488133531527e-04  5.0677825704617150e-05  2.8366492159258394e-05  6.9017499825353978e-05  0.0000000000000000e+00  1.0465362732124301e-04  2.4294032536868908e-04  2.7814858407365986e-04  7.0942376531671049e-05  1.0442428175962457e-04  1.4394994043294485e-05  1.7186316831303486e-04  4.8089555440111997e-04  7.2757593195619294e-04  8.7307813584102984e-05  2.0898200520375808e-04  8.5009198736378684e-05  1.1086959167853533e-05  6.0090619390749542e-05  9.7363562411582779e-06  5.3362572242777378e-06  1.9979199696246071e-06  1.0582010617600023e-05  5.3362572242777352e-06  8.6468245340969643e-07  2.5988453380586108e-05  8.5908661985589831e-06  1.0019904296164669e-04  3.3473213647887572e-05  3.0027369457542758e-05  8.5908661985589831e-06  4.3062080361765875e-05  4.2867145420825760e-06  1.1673636640849303e-04  2.3149286416977748e-04  4.3706648279218045e-05  2.6454811651840161e-05  6.6956344730184720e-05  4.2458465216156470e-04  9.6387406294545124e-05  2.2664017124208094e-04  2.6405902842725840e-04  6.9017499825353978e-05  1.0175742398313402e-04  1.1086959167853536e-05  1.6114180395610452e-04  4.5086658752615985e-04  7.0928468638916840e-04  5.9452042208252016e-05  1.9551490504875104e-04  8.2182070809741310e-05  7.5496377397361778e-06  1.2290577113531230e-05  9.4125568754163538e-06  4.9782194424358442e-06  1.6487014602913656e-06  1.0315979065018324e-05  4.9782194424358425e-06  4.3892816270005481e-07  2.4790969701927525e-05  7.7981097019650080e-06  9.7206674816551804e-05  3.1125564214920882e-05  2.9130624925959366e-05  7.7981097019650080e-06  4.1077886164168114e-05  2.1760123968705162e-06  1.0890390482867548e-04  2.2567313781605004e-04  3.6067117771452691e-05  2.4679818115213574e-05  6.4729595685775049e-05  4.1258074956624253e-04  8.7492873337826423e-05  2.1168131800038063e-04  2.4952270442231368e-04  6.6956344730184720e-05  9.9275324752525396e-05  7.5496377397361804e-06  1.5069088797329329e-04  4.2153807427007712e-04  6.9003969294905701e-04  3.0178911983622702e-05  1.8321811790280158e-04  7.9125421462596145e-05  0.0000000000000000e+00  1.1960023415721257e-05  9.0624697390771466e-06  4.6496437374482457e-06  1.269822392093707