<?xml version="1.0"?>
<VTKFile type="UnstructuredGrid"  version="0.1"  >
<UnstructuredGrid>
<Piece  NumberOfPoints="1089" NumberOfCells="2048">
<Points>
<DataArray  type="Float64"  NumberOfComponents="3"  format="ascii">0 0 0  0.03125 0 0  0.0625 0 0  0.09375 0 0  0.125 0 0  0.15625 0 0  0.1875 0 0  0.21875 0 0  0.25 0 0  0.28125 0 0  0.3125 0 0  0.34375 0 0  0.375 0 0  0.40625 0 0  0.4375 0 0  0.46875 0 0  0.5 0 0  0.53125 0 0  0.5625 0 0  0.59375 0 0  0.625 0 0  0.65625 0 0  0.6875 0 0  0.71875 0 0  0.75 0 0  0.78125 0 0  0.8125 0 0  0.84375 0 0  0.875 0 0  0.90625 0 0  0.9375 0 0  0.96875 0 0  1 0 0  0 0.03125 0  0.03125 0.03125 0  0.0625 0.03125 0  0.09375 0.03125 0  0.125 0.03125 0  0.15625 0.03125 0  0.1875 0.03125 0  0.21875 0.03125 0  0.25 0.03125 0  0.28125 0.03125 0  0.3125 0.03125 0  0.34375 0.03125 0  0.375 0.03125 0  0.40625 0.03125 0  0.4375 0.03125 0  0.46875 0.03125 0  0.5 0.03125 0  0.53125 0.03125 0  0.5625 0.03125 0  0.59375 0.03125 0  0.625 0.03125 0  0.65625 0.03125 0  0.6875 0.03125 0  0.71875 0.03125 0  0.75 0.03125 0  0.78125 0.03125 0  0.8125 0.03125 0  0.84375 0.03125 0  0.875 0.03125 0  0.90625 0.03125 0  0.9375 0.03125 0  0.96875 0.03125 0  1 0.03125 0  0 0.0625 0  0.03125 0.0625 0  0.0625 0.0625 0  0.09375 0.0625 0  0.125 0.0625 0  0.15625 0.0625 0  0.1875 0.0625 0  0.21875 0.0625 0  0.25 0.0625 0  0.28125 0.0625 0  0.3125 0.0625 0  0.34375 0.0625 0  0.375 0.0625 0  0.40625 0.0625 0  0.4375 0.0625 0  0.46875 0.0625 0  0.5 0.0625 0  0.53125 0.0625 0  0.5625 0.0625 0  0.59375 0.0625 0  0.625 0.0625 0  0.65625 0.0625 0  0.6875 0.0625 0  0.71875 0.0625 0  0.75 0.0625 0  0.78125 0.0625 0  0.8125 0.0625 0  0.84375 0.0625 0  0.875 0.0625 0  0.90625 0.0625 0  0.9375 0.0625 0  0.96875 0.0625 0  1 0.0625 0  0 0.09375 0  0.03125 0.09375 0  0.0625 0.09375 0  0.09375 0.09375 0  0.125 0.09375 0  0.15625 0.09375 0  0.1875 0.09375 0  0.21875 0.09375 0  0.25 0.09375 0  0.28125 0.09375 0  0.3125 0.09375 0  0.34375 0.09375 0  0.375 0.09375 0  0.40625 0.09375 0  0.4375 0.09375 0  0.46875 0.09375 0  0.5 0.09375 0  0.53125 0.09375 0  0.5625 0.09375 0  0.59375 0.09375 0  0.625 0.09375 0  0.65625 0.09375 0  0.6875 0.09375 0  0.71875 0.09375 0  0.75 0.09375 0  0.78125 0.09375 0  0.8125 0.09375 0  0.84375 0.09375 0  0.875 0.09375 0  0.90625 0.09375 0  0.9375 0.09375 0  0.96875 0.09375 0  1 0.09375 0  0 0.125 0  0.03125 0.125 0  0.0625 0.125 0  0.09375 0.125 0  0.125 0.125 0  0.15625 0.125 0  0.1875 0.125 0  0.21875 0.125 0  0.25 0.125 0  0.28125 0.125 0  0.3125 0.125 0  0.34375 0.125 0  0.375 0.125 0  0.40625 0.125 0  0.4375 0.125 0  0.46875 0.125 0  0.5 0.125 0  0.53125 0.125 0  0.5625 0.125 0  0.59375 0.125 0  0.625 0.125 0  0.65625 0.125 0  0.6875 0.125 0  0.71875 0.125 0  0.75 0.125 0  0.78125 0.125 0  0.8125 0.125 0  0.84375 0.125 0  0.875 0.125 0  0.90625 0.125 0  0.9375 0.125 0  0.96875 0.125 0  1 0.125 0  0 0.15625 0  0.03125 0.15625 0  0.0625 0.15625 0  0.09375 0.15625 0  0.125 0.15625 0  0.15625 0.15625 0  0.1875 0.15625 0  0.21875 0.15625 0  0.25 0.15625 0  0.28125 0.15625 0  0.3125 0.15625 0  0.34375 0.15625 0  0.375 0.15625 0  0.40625 0.15625 0  0.4375 0.15625 0  0.46875 0.15625 0  0.5 0.15625 0  0.53125 0.15625 0  0.5625 0.15625 0  0.59375 0.15625 0  0.625 0.15625 0  0.65625 0.15625 0  0.6875 0.15625 0  0.71875 0.15625 0  0.75 0.15625 0  0.78125 0.15625 0  0.8125 0.15625 0  0.84375 0.15625 0  0.875 0.15625 0  0.90625 0.15625 0  0.9375 0.15625 0  0.96875 0.15625 0  1 0.15625 0  0 0.1875 0  0.03125 0.1875 0  0.0625 0.1875 0  0.09375 0.1875 0  0.125 0.1875 0  0.15625 0.1875 0  0.1875 0.1875 0  0.21875 0.1875 0  0.25 0.1875 0  0.28125 0.1875 0  0.3125 0.1875 0  0.34375 0.1875 0  0.375 0.1875 0  0.40625 0.1875 0  0.4375 0.1875 0  0.46875 0.1875 0  0.5 0.1875 0  0.53125 0.1875 0  0.5625 0.1875 0  0.59375 0.1875 0  0.625 0.1875 0  0.65625 0.1875 0  0.6875 0.1875 0  0.71875 0.1875 0  0.75 0.1875 0  0.78125 0.1875 0  0.8125 0.1875 0  0.84375 0.1875 0  0.875 0.1875 0  0.90625 0.1875 0  0.9375 0.1875 0  0.96875 0.1875 0  1 0.1875 0  0 0.21875 0  0.03125 0.21875 0  0.0625 0.21875 0  0.09375 0.21875 0  0.125 0.21875 0  0.15625 0.21875 0  0.1875 0.21875 0  0.21875 0.21875 0  0.25 0.21875 0  0.28125 0.21875 0  0.3125 0.21875 0  0.34375 0.21875 0  0.375 0.21875 0  0.40625 0.21875 0  0.4375 0.21875 0  0.46875 0.21875 0  0.5 0.21875 0  0.53125 0.21875 0  0.5625 0.21875 0  0.59375 0.21875 0  0.625 0.21875 0  0.65625 0.21875 0  0.6875 0.21875 0  0.71875 0.21875 0  0.75 0.21875 0  0.78125 0.21875 0  0.8125 0.21875 0  0.84375 0.21875 0  0.875 0.21875 0  0.90625 0.21875 0  0.9375 0.21875 0  0.96875 0.21875 0  1 0.21875 0  0 0.25 0  0.03125 0.25 0  0.0625 0.25 0  0.09375 0.25 0  0.125 0.25 0  0.15625 0.25 0  0.1875 0.25 0  0.21875 0.25 0  0.25 0.25 0  0.28125 0.25 0  0.3125 0.25 0  0.34375 0.25 0  0.375 0.25 0  0.40625 0.25 0  0.4375 0.25 0  0.46875 0.25 0  0.5 0.25 0  0.53125 0.25 0  0.5625 0.25 0  0.59375 0.25 0  0.625 0.25 0  0.65625 0.25 0  0.6875 0.25 0  0.71875 0.25 0  0.75 0.25 0  0.78125 0.25 0  0.8125 0.25 0  0.84375 0.25 0  0.875 0.25 0  0.90625 0.25 0  0.9375 0.25 0  0.96875 0.25 0  1 0.25 0  0 0.28125 0  0.03125 0.28125 0  0.0625 0.28125 0  0.09375 0.28125 0  0.125 0.28125 0  0.15625 0.28125 0  0.1875 0.28125 0  0.21875 0.28125 0  0.25 0.28125 0  0.28125 0.28125 0  0.3125 0.28125 0  0.34375 0.28125 0  0.375 0.28125 0  0.40625 0.28125 0  0.4375 0.28125 0  0.46875 0.28125 0  0.5 0.28125 0  0.53125 0.28125 0  0.5625 0.28125 0  0.59375 0.28125 0  0.625 0.28125 0  0.65625 0.28125 0  0.6875 0.28125 0  0.71875 0.28125 0  0.75 0.28125 0  0.78125 0.28125 0  0.8125 0.28125 0  0.84375 0.28125 0  0.875 0.28125 0  0.90625 0.28125 0  0.9375 0.28125 0  0.96875 0.28125 0  1 0.28125 0  0 0.3125 0  0.03125 0.3125 0  0.0625 0.3125 0  0.09375 0.3125 0  0.125 0.3125 0  0.15625 0.3125 0  0.1875 0.3125 0  0.21875 0.3125 0  0.25 0.3125 0  0.28125 0.3125 0  0.3125 0.3125 0  0.34375 0.3125 0  0.375 0.3125 0  0.40625 0.3125 0  0.4375 0.3125 0  0.46875 0.3125 0  0.5 0.3125 0  0.53125 0.3125 0  0.5625 0.3125 0  0.59375 0.3125 0  0.625 0.3125 0  0.65625 0.3125 0  0.6875 0.3125 0  0.71875 0.3125 0  0.75 0.3125 0  0.78125 0.3125 0  0.8125 0.3125 0  0.84375 0.3125 0  0.875 0.3125 0  0.90625 0.3125 0  0.9375 0.3125 0  0.96875 0.3125 0  1 0.3125 0  0 0.34375 0  0.03125 0.34375 0  0.0625 0.34375 0  0.09375 0.34375 0  0.125 0.34375 0  0.15625 0.34375 0  0.1875 0.34375 0  0.21875 0.34375 0  0.25 0.34375 0  0.28125 0.34375 0  0.3125 0.34375 0  0.34375 0.34375 0  0.375 0.34375 0  0.40625 0.34375 0  0.4375 0.34375 0  0.46875 0.34375 0  0.5 0.34375 0  0.53125 0.34375 0  0.5625 0.34375 0  0.59375 0.34375 0  0.625 0.34375 0  0.65625 0.34375 0  0.6875 0.34375 0  0.71875 0.34375 0  0.75 0.34375 0  0.78125 0.34375 0  0.8125 0.34375 0  0.84375 0.34375 0  0.875 0.34375 0  0.90625 0.34375 0  0.9375 0.34375 0  0.96875 0.34375 0  1 0.34375 0  0 0.375 0  0.03125 0.375 0  0.0625 0.375 0  0.09375 0.375 0  0.125 0.375 0  0.15625 0.375 0  0.1875 0.375 0  0.21875 0.375 0  0.25 0.375 0  0.28125 0.375 0  0.3125 0.375 0  0.34375 0.375 0  0.375 0.375 0  0.40625 0.375 0  0.4375 0.375 0  0.46875 0.375 0  0.5 0.375 0  0.53125 0.375 0  0.5625 0.375 0  0.59375 0.375 0  0.625 0.375 0  0.65625 0.375 0  0.6875 0.375 0  0.71875 0.375 0  0.75 0.375 0  0.78125 0.375 0  0.8125 0.375 0  0.84375 0.375 0  0.875 0.375 0  0.90625 0.375 0  0.9375 0.375 0  0.96875 0.375 0  1 0.375 0  0 0.40625 0  0.03125 0.40625 0  0.0625 0.40625 0  0.09375 0.40625 0  0.125 0.40625 0  0.15625 0.40625 0  0.1875 0.40625 0  0.21875 0.40625 0  0.25 0.40625 0  0.28125 0.40625 0  0.3125 0.40625 0  0.34375 0.40625 0  0.375 0.40625 0  0.40625 0.40625 0  0.4375 0.40625 0  0.46875 0.40625 0  0.5 0.40625 0  0.53125 0.40625 0  0.5625 0.40625 0  0.59375 0.40625 0  0.625 0.40625 0  0.65625 0.40625 0  0.6875 0.40625 0  0.71875 0.40625 0  0.75 0.40625 0  0.78125 0.40625 0  0.8125 0.40625 0  0.84375 0.40625 0  0.875 0.40625 0  0.90625 0.40625 0  0.9375 0.40625 0  0.96875 0.40625 0  1 0.40625 0  0 0.4375 0  0.03125 0.4375 0  0.0625 0.4375 0  0.09375 0.4375 0  0.125 0.4375 0  0.15625 0.4375 0  0.1875 0.4375 0  0.21875 0.4375 0  0.25 0.4375 0  0.28125 0.4375 0  0.3125 0.4375 0  0.34375 0.4375 0  0.375 0.4375 0  0.40625 0.4375 0  0.4375 0.4375 0  0.46875 0.4375 0  0.5 0.4375 0  0.53125 0.4375 0  0.5625 0.4375 0  0.59375 0.4375 0  0.625 0.4375 0  0.65625 0.4375 0  0.6875 0.4375 0  0.71875 0.4375 0  0.75 0.4375 0  0.78125 0.4375 0  0.8125 0.4375 0  0.84375 0.4375 0  0.875 0.4375 0  0.90625 0.4375 0  0.9375 0.4375 0  0.96875 0.4375 0  1 0.4375 0  0 0.46875 0  0.03125 0.46875 0  0.0625 0.46875 0  0.09375 0.46875 0  0.125 0.46875 0  0.15625 0.46875 0  0.1875 0.46875 0  0.21875 0.46875 0  0.25 0.46875 0  0.28125 0.46875 0  0.3125 0.46875 0  0.34375 0.46875 0  0.375 0.46875 0  0.40625 0.46875 0  0.4375 0.46875 0  0.46875 0.46875 0  0.5 0.46875 0  0.53125 0.46875 0  0.5625 0.46875 0  0.59375 0.46875 0  0.625 0.46875 0  0.65625 0.46875 0  0.6875 0.46875 0  0.71875 0.46875 0  0.75 0.46875 0  0.78125 0.46875 0  0.8125 0.46875 0  0.84375 0.46875 0  0.875 0.46875 0  0.90625 0.46875 0  0.9375 0.46875 0  0.96875 0.46875 0  1 0.46875 0  0 0.5 0  0.03125 0.5 0  0.0625 0.5 0  0.09375 0.5 0  0.125 0.5 0  0.15625 0.5 0  0.1875 0.5 0  0.21875 0.5 0  0.25 0.5 0  0.28125 0.5 0  0.3125 0.5 0  0.34375 0.5 0  0.375 0.5 0  0.40625 0.5 0  0.4375 0.5 0  0.46875 0.5 0  0.5 0.5 0  0.53125 0.5 0  0.5625 0.5 0  0.59375 0.5 0  0.625 0.5 0  0.65625 0.5 0  0.6875 0.5 0  0.71875 0.5 0  0.75 0.5 0  0.78125 0.5 0  0.8125 0.5 0  0.84375 0.5 0  0.875 0.5 0  0.90625 0.5 0  0.9375 0.5 0  0.96875 0.5 0  1 0.5 0  0 0.53125 0  0.03125 0.53125 0  0.0625 0.53125 0  0.09375 0.53125 0  0.125 0.53125 0  0.15625 0.53125 0  0.1875 0.53125 0  0.21875 0.53125 0  0.25 0.53125 0  0.28125 0.53125 0  0.3125 0.53125 0  0.34375 0.53125 0  0.375 0.53125 0  0.40625 0.53125 0  0.4375 0.53125 0  0.46875 0.53125 0  0.5 0.53125 0  0.53125 0.53125 0  0.5625 0.53125 0  0.59375 0.53125 0  0.625 0.53125 0  0.65625 0.53125 0  0.6875 0.53125 0  0.71875 0.53125 0  0.75 0.53125 0  0.78125 0.531
[...]
<PointData  Scalars="theta"> 
<DataArray  type="Float64"  Name="theta"  format="ascii">-2.2356163947194519e-05  -8.4749045478294702e-06  0.0000000000000000e+00  -8.5545228957694460e-05  -1.3620954658419152e-04  -4.2095819815412980e-05  -1.9164516277370683e-06  -6.2501228683823942e-05  -7.7360158291596130e-05  -5.3420832846465587e-05  0.0000000000000000e+00  -1.3241479250827965e-04  -6.2501228683823956e-05  -1.0042031778816432e-05  -1.0059062877070046e-05  -6.4234074410258847e-05  -1.4121479293559120e-04  0.0000000000000000e+00  -5.9561079535037242e-05  -1.2891255312698870e-04  -1.9226369587368967e-04  -3.5754791901737236e-05  -1.2112068436126815e-04  -1.6224454867341416e-04  -8.2501346924130362e-05  0.0000000000000000e+00  -5.2824986204141383e-05  -2.7600940467976604e-05  -1.4177300393123882e-05  -1.0059062877070058e-05  -7.7529082335022673e-06  -6.0270231603805755e-06  -4.6200316774268168e-06  -1.0017034299232055e-04  -1.8448506800389117e-05  -7.9462133777587145e-06  -1.3620954658419152e-04  -7.8788312943945922e-05  -1.2712137651449924e-04  -3.9143422457946854e-05  -9.7282486599458939e-07  -5.8473559862887015e-05  -7.1249752150242407e-05  -4.1144483332203102e-05  -1.9865308222369877e-04  -1.2353038221841851e-04  -5.8473559862887036e-05  -9.4104444977026186e-06  -9.4264044357291685e-06  -6.0094738525316467e-05  -1.3173994397293378e-04  -2.2148647633802004e-04  -4.5873673501507378e-05  -1.1873020508478838e-04  -1.7987394755072630e-04  -1.8149767067976373e-05  -1.1262586492288376e-04  -1.5141927182460636e-04  -7.5984856419871336e-05  -8.4697866046922171e-05  -4.9529597612137503e-05  -2.2776543378520927e-05  -1.3231362899512265e-05  -9.4264044357291803e-06  -7.2091567189424159e-06  -5.3569232443242175e-06  -5.3899658609224809e-05  -9.3449383731184800e-05  -1.4208956321108088e-05  -7.4308585390163815e-06  -1.2712137651449924e-04  -7.1517806629638612e-05  -1.1855438641242467e-04  -3.6051621532733068e-05  0.0000000000000000e+00  -5.4795902043803781e-05  -6.4674896647628512e-05  -2.8017235334229591e-05  -1.8539855608076339e-04  -1.1537704890434023e-04  -5.4795902043803801e-05  -8.8272318541506301e-06  -8.8422026744315023e-06  -5.6315117692556708e-05  -1.2304475777906172e-04  -2.0670846102576279e-04  -3.1237565818001121e-05  -1.0777390111643078e-04  -1.6856088860219530e-04  0.0000000000000000e+00  -1.0372994495713023e-04  -1.4121479293559131e-04  -6.8973050255352375e-05  -7.9046657078990829e-05  -4.6317335799256847e-05  -1.7542390477065679e-05  -1.2339672153981757e-05  -8.8422026744315141e-06  -6.6397308482847456e-06  -6.4026080096289301e-05  -4.8925852296908169e-05  -8.7281476210196405e-05  -9.6755540685254281e-06  -6.9096940335976308e-06  -1.1855438641242464e-04  -6.3566273187044459e-05  -1.1059994423418497e-04  -3.2724814139595536e-05  -1.4153296666443041e-05  -5.1399924001046677e-05  -5.7484175513616336e-05  -1.4222046001622434e-05  -1.7290413823828782e-04  -1.0794198638941729e-04  -5.1399924001046697e-05  -8.2765613998560174e-06  -8.2905982933361149e-06  -5.2824986204141315e-05  -1.1511557710657478e-04  -1.9277792166112024e-04  -1.5856742920653224e-05  -9.5791321960948290e-05  -1.5811432133694463e-04  -2.2148647633802004e-04  -9.4157849913920966e-05  -1.3173994397293386e-04  -6.1304449362943646e-05  -7.3719528413730039e-05  -4.3068861712798300e-05  -1.1945447907380009e-05  -1.1511738143123466e-05  -8.2905982933361267e-06  -4.6520163954420419e-06  -5.9711221262165658e-05  -4.3486150366996601e-05  -8.1656932696732014e-05  -4.9114830000958618e-06  -6.3639216645879247e-06  -1.1059994423418496e-04  -5.4822177273357626e-05  -1.0330005416936392e-04  -2.9086385246198317e-05  -1.3208960748901916e-05  -4.8193435266182856e-05  -4.9576725241500732e-05  0.0000000000000000e+00  -1.6130308313088538e-04  -1.0115304295612421e-04  -4.8193435266182883e-05  -7.7397817083488032e-06  -7.7529082335022554e-06  -4.9529597612137436e-05  -1.0787545519101176e-04  -1.7984342908351035e-04  0.0000000000000000e+00  -8.2614389211395445e-05  -1.4825065324713913e-04  -2.0670846102576279e-04  -8.3689138305488811e-05  -1.2304475777906183e-04  -5.2871487065657496e-05  -6.8773294504390195e-05  -3.9667004181444387e-05  -6.0637214065580626e-06  -1.0751932851342543e-05  -4.3693666276189673e-05  -4.1347932633707078e-06  -5.5704878930219717e-05  -3.7504250679293572e-05  -7.6521171205236208e-05  0.0000000000000000e+00  -5.7766653708903846e-06  -1.0330005416936390e-04  -4.5239751892524267e-05  -9.6643250517010703e-05  -2.5085298984198613e-05  -1.2318779733739394e-05  -4.5067830795308702e-05  -4.0911157876600948e-05  -2.1497725396430394e-04  -1.5065665123505255e-04  -9.4884079401833966e-05  -4.5067830795308715e-05  -7.1969508248241870e-06  -7.2091567189424040e-06  -4.6317335799256786e-05  -1.0118986989143498e-04  -1.6797328511300111e-04  -2.5351536405411569e-04  -6.8174134201931538e-05  -1.3863579798645970e-04  -1.9277792166112024e-04  -7.2176966589464035e-05  -1.1511557710657487e-04  -4.3630024854951506e-05  -6.4234074410258915e-05  -3.6006572911948521e-05  0.0000000000000000e+00  -1.2635433492604328e-05  -4.0877983752198289e-05  -3.5660163465331717e-06  -5.2028208972739894e-05  -3.0948843698530496e-05  -7.1778768807857942e-05  -1.2504262590204434e-05  -5.1344008769416200e-06  -9.6643250517010690e-05  -3.4843451861648012e-05  -9.0564933979435088e-05  -2.0700613485966924e-05  -1.1492247506094785e-05  -4.1906990951109203e-05  -3.1509588369629946e-05  -2.0063354682968397e-04  -1.4094812054494732e-04  -8.8964912445211439e-05  -4.1906990951109217e-05  -6.6284890547064835e-06  -6.6397308482847354e-06  -4.3068861712798239e-05  -9.4877327914084700e-05  -1.5714884569881915e-04  -2.3660031807105274e-04  -5.2507409167888560e-05  -1.2891255312698870e-04  -1.7984342908351035e-04  -5.9561079535037269e-05  -1.0787545519101187e-04  -3.3603647393283360e-05  -6.0094738525316542e-05  -3.2003269648675464e-05  -2.6982514479938395e-05  -6.4139703378481453e-06  -3.8306988640439292e-05  -2.9427086406553077e-06  -4.8675436563276371e-05  -2.3836659143164139e-05  -6.7300983712687300e-05  -1.1669953484376619e-05  -4.4281192046593819e-06  -9.0564933979435074e-05  -2.3726563359239547e-05  -8.4952168868057811e-05  -1.5943518682825927e-05  -1.0733728648123462e-05  -3.8596905494612269e-05  -2.1456377165044238e-05  -1.8711240933918510e-04  -1.3208327703580070e-04  -8.3195057556182577e-05  -3.8596905494612289e-05  -6.0168187482125870e-06  -6.0270231603805670e-06  -3.9667004181444333e-05  -8.8724020961074347e-05  -1.4726506775714155e-04  -2.2065530049305938e-04  -3.5754791901737236e-05  -1.1873020508478838e-04  -1.6797328511300111e-04  -4.5873673501507399e-05  -1.0118986989143506e-04  -2.2882321537604751e-05  -5.6315117692556783e-05  -7.2758618671561089e-06  -2.4492595168658676e-05  0.0000000000000000e+00  -3.5932911611776017e-05  -2.2664608574140373e-06  -4.5614025554711437e-05  -1.6231514767209145e-05  -6.2936151564392393e-05  -1.0883489565140172e-05  -3.6541236436201677e-06  -8.4952168868057798e-05  -1.2044024741557997e-05  -7.9652585692173555e-05  -1.0856700068045349e-05  -1.0042031778816422e-05  -3.5035221856190570e-05  -1.0891637930335114e-05  -1.7455804601312531e-04  -1.2389741108782503e-04  -7.7360158291596158e-05  -3.5035221856190583e-05  -5.3478533849122447e-06  -5.3569232443242099e-06  -3.6006572911948467e-05  -8.2501346924130308e-05  -1.3813830977132350e-04  -2.0585036680643705e-04  -1.8149767067976373e-05  -1.0777390111643078e-04  -1.5714884569881915e-04  -3.1237565818001128e-05  -9.4877327914084768e-05  -1.1615472606397308e-05  -7.8029874067228096e-06  -6.8249400605720358e-06  -2.1769445525828342e-05  -8.9590131881134337e-05  -3.3691303700222089e-05  -1.5433409797684467e-06  -4.2787094644773473e-05  -8.2394050284194476e-06  -5.8522114057044306e-05  -1.0153258562617690e-05  -2.8143894682594136e-06  -7.9652585692173541e-05  0.0000000000000000e+00  -7.4486685469849276e-05  -5.5110536764816777e-06  -9.4104444977026101e-06  -3.1139915898320857e-05  0.0000000000000000e+00  -1.6303675136285244e-04  -1.1616830135365865e-04  -7.1249752150242420e-05  -3.1139915898320871e-05  -4.6122094563715638e-06  -4.6200316774268100e-06  -3.2003269648675423e-05  -7.5984856419871282e-05  -1.2952080803871669e-04  -1.9226369587368967e-04  0.0000000000000000e+00  -9.5791321960948290e-05  -1.4726506775714155e-04  -1.5856742920653228e-05  -8.8724020961074428e-05  0.0000000000000000e+00  -7.2794436221142268e-06  -6.3991788586702714e-06  -1.8774868211133412e-05  -8.3612501270649607e-05  -3.1506240757658079e-05  -7.8342727783849140e-07  -4.0117901262829486e-05  0.0000000000000000e+00  -5.3899658609224809e-05  -9.4831165311725836e-06  -1.9164516277370671e-06  -7.4486685469849262e-05  -1.6823055114686324e-04  -6.9262549336810377e-05  0.0000000000000000e+00  -8.8272318541506233e-06  -2.6856348564463773e-05  -1.9865308222369882e-04  -1.5253042926392454e-04  -1.0863415982422849e-04  -6.4674896647628526e-05  -2.6856348564463783e-05  -3.8060365687811822e-06  -3.8124915356830493e-06  -2.7600940467976570e-05  -6.8973050255352334e-05  -1.2112068436126813e-04  -1.7987394755072630e-04  -2.5351536405411569e-04  -8.2614389211395445e-05  -1.3813830977132350e-04  0.0000000000000000e+00  -6.2673092393511124e-06  -4.4437657134752363e-05  -6.7989810093846983e-06  -5.9841575608501081e-06  -1.5493189470592077e-05  -7.7977670289145466e-05  -2.9296545297052198e-05  0.0000000000000000e+00  -3.7516038771462831e-05  -1.3139856256603471e-04  -4.8925852296908169e-05  -8.8720109004155892e-06  -9.7282486599458875e-07  -6.9262549336810363e-05  -1.5700587638593717e-04  -6.3791744775653774e-05  -1.3588386514263538e-05  -8.2765613998560106e-06  -2.2162099468200843e-05  -1.8539855608076347e-04  -1.4293712372299351e-04  -1.0101508487089614e-04  -5.7484175513616350e-05  -2.2162099468200853e-05  -2.9313921146838431e-06  -2.9363637009349804e-06  -2.2776543378520900e-05  -6.1304449362943605e-05  -1.1262586492288373e-04  -1.6856088860219530e-04  -2.3660031807105274e-04  -6.8174134201931538e-05  -1.2952080803871669e-04  -1.8568085678484018e-06  -3.1813974235904317e-06  -4.1472688851199063e-05  -6.3608449214660248e-06  -5.5644576702959878e-06  -1.1932784308465078e-05  -7.2745735071235701e-05  -2.6982514479938388e-05  -1.2504262590204430e-05  -3.4884845122850025e-05  -1.2263139085553275e-04  -4.3486150366996601e-05  -8.3140113475336698e-06  0.0000000000000000e+00  -6.3791744775653747e-05  -1.4642490388669388e-04  -5.7905106696195955e-05  -1.2681742518220218e-05  -7.7397817083487964e-06  -1.7069148562260694e-05  -1.7290413823828788e-04  -1.3407859022773131e-04  -9.3036259483312287e-05  -4.9576725241500739e-05  -1.7069148562260701e-05  -1.9961242937694339e-06  -1.9995096832725152e-06  -1.7542390477065659e-05  -5.2871487065657469e-05  -1.0372994495713020e-04  -1.5811432133694463e-04  -2.2065530049305938e-04  -5.2507409167888560e-05  -1.3769321750382747e-06  -1.2643892547146223e-06  0.0000000000000000e+00  -3.8677752825202550e-05  -5.9607835755131012e-06  -5.1249407784908024e-06  -8.1256003013458341e-06  -6.7944323349180939e-05  -2.4492595168658672e-05  -1.1669953484376616e-05  -3.2129414206132355e-05  -1.1436699079577443e-04  -3.7504250679293572e-05  -7.7987501887541794e-06  -7.6978220926049597e-05  -5.7905106696195941e-05  -1.3660048096429626e-04  -5.1467068197949140e-05  -1.1827091903118840e-05  -7.1969508248241811e-06  -1.1623194982484604e-05  -1.6130308313088541e-04  -1.2571434655408528e-04  -8.4450966985499871e-05  -4.0911157876600954e-05  -1.1623194982484609e-05  -1.0132681255763030e-06  -1.0149866093835688e-06  -1.1945447907379995e-05  -4.3630024854951478e-05  -9.4157849913920926e-05  -1.4825065324713913e-04  -2.0585036680643705e-04  -4.1737172794787676e-06  -9.3761859824171678e-07  -6.4182643040939187e-07  -6.0713232978638551e-05  -3.6082657377936345e-05  -5.5913637943789618e-06  -4.6520163954420402e-06  -4.1246989539810441e-06  -6.3565893701061430e-05  -2.1769445525828338e-05  -1.0883489565140169e-05  -2.9164544162184680e-05  -1.0669350318461575e-04  -3.0948843698530496e-05  -7.3122396517785198e-06  -7.1842081932988166e-05  -5.1467068197949119e-05  -1.2758448641976344e-04  -4.4387323576223365e-05  -1.1033549618206586e-05  -6.6284890547064768e-06  -5.9001401014311967e-06  -1.5065665123505261e-04  -1.1756109245480357e-04  -7.5061491554267537e-05  -3.1509588369629953e-05  -5.9001401014311984e-06  0.0000000000000000e+00  0.0000000000000000e+00  -6.0637214065580558e-06  -3.3603647393283347e-05  -8.3689138305488784e-05  -1.3863579798645970e-04  0.0000000000000000e+00  -2.1186529805099234e-06  -4.7595184453759444e-07  0.0000000000000000e+00  -5.6662326117645042e-05  -3.3701106158092904e-05  -5.2425569553097754e-06  -4.1347932633707061e-06  0.0000000000000000e+00  -5.9567956743829961e-05  -1.8774868211133409e-05  -1.0153258562617686e-05  -2.5921955229828919e-05  -9.9651448604288033e-05  -2.3836659143164139e-05  -6.8380014319573304e-06  -6.7000485486287174e-05  -4.4387323576223352e-05  -1.1936275912240669e-04  -3.6628817125390174e-05  -1.0305306039103936e-05  -6.0168187482125819e-06  0.0000000000000000e+00  -1.4094812054494735e-04  -1.0931592558962923e-04  -6.4736127982242356e-05  -2.1456377165044242e-05  0.0000000000000000e+00  -1.4177300393123865e-05  -8.4697866046922049e-05  0.0000000000000000e+00  -2.2882321537604737e-05  -7.2176966589464008e-05  -2.5757466104332567e-05  -2.9593276852902131e-05  0.0000000000000000e+00  0.0000000000000000e+00  -4.4437657134752377e-05  -5.2843726914897892e-05  -3.1529358540287008e-05  -4.9025488324643225e-06  -3.5660163465331704e-06  -8.9590131881134337e-05  -5.5876230435679393e-05  -1.5493189470592070e-05  -9.4831165311725802e-06  -2.2356163947194512e-05  -9.3229766327687178e-05  -1.6231514767209145e-05  -6.3584170588156392e-06  -6.2505067781027087e-05  -3.6628817125390167e-05  -1.1185551336170374e-04  -2.8211348932453838e-05  -9.6412173372020765e-06  -5.3478533849122388e-06  -1.5213404914305516e-04  -1.3208327703580073e-04  -1.0068144606138348e-04  -5.3420832846465567e-05  -1.0891637930335118e-05  -1.4153296666443053e-05  -1.3231362899512247e-05  -7.9046657078990734e-05  -1.6224454867341402e-04  -1.1615472606397302e-05  -4.4202697228364915e-06  -2.4029261176746605e-05  -2.7618754951146701e-05  -6.6480800931639369e-06  -8.9650109863879567e-06  -4.1472688851199076e-05  -4.9298161179649889e-05  -2.9546339339159814e-05  -4.5587077508252215e-06  -2.9427086406553068e-06  -8.3612501270649607e-05  -5.2390495642861170e-05  -1.1932784308465074e-05  -8.8720109004155858e-06  -1.8448506800389114e-05  -8.7366138734116660e-05  -8.2394050284194476e-06  -5.8561881143113200e-06  -5.8379567298589619e-05  -2.8211348932453831e-05  -1.0492326381074259e-04  -1.9210449083899171e-05  -9.0348390286334782e-06  -4.6122094563715595e-06  -1.4198336479914682e-04  -1.2389741108782506e-04  -9.1390663431684742e-05  -4.1144483332203095e-05  0.0000000000000000e+00  -1.3208960748901926e-05  -1.2339672153981742e-05  -7.3719528413729958e-05  -1.5141927182460625e-04  -1.9125875604640227e-06  -4.1463233443314554e-06  -2.2443266119120659e-05  -2.5757466104332574e-05  -6.2045070541312842e-06  -8.3668477403882122e-06  -3.8677752825202563e-05  -4.6044351609481563e-05  -2.7715203872872084e-05  -4.1986314990124674e-06  -2.2664608574140365e-06  -7.7977670289145466e-05  -4.8992689146847716e-05  -8.1256003013458307e-06  -8.3140113475336681e-06  -1.4208956321108085e-05  -8.1951619075614545e-05  0.0000000000000000e+00  -5.3157849622199214e-06  -5.4617504248952742e-05  -1.9210449083899171e-05  -9.8377820992044256e-05  -9.7515649679127157e-06  -8.4749045478294753e-06  -3.8060365687811788e-06  -1.3241479250827962e-04  -1.1616830135365866e-04  -8.1229614724176596e-05  -2.8017235334229588e-05  -8.2412967625561392e-05  -1.2318779733739403e-05  -1.1511738143123453e-05  -6.8773294504390127e-05  -1.9282149724024492e-06  -1.7360959030666577e-06  -3.8876626682100089e-06  -2.0996989860373007e-05  -2.4029261176746612e-05  -5.7863716312904852e-06  -7.8029874067228096e-06  -3.6082657377936359e-05  -4.3077187551061014e-05  -2.5986242386450261e-05  -3.8111860050755989e-06  -1.5433409797684463e-06  -7.2745735071235701e-05  -4.5556578706272528e-05  -4.1246989539810433e-06  -7.7987501887541777e-06  -9.6755540685254281e-06  -7.6839219622174546e-05  -6.8603436956049624e-05  -4.7247623359301814e-06  -5.1182370625636930e-05  -9.7515649679127140e-06  -9.1997488163947315e-05  0.0000000000000000e+00  -7.9462133777587179e-06  -2.9313921146838406e-06  -1.2353038221841849e-04  -1.0863415982422851e-04  -7.0055771952396909e-05  -1.4222046001622430e-05  -7.6914211594784963e-05  -1.1492247506094793e-05  -1.0751932851342531e-05  -1.0368560892534986e-05  -9.7879614856291592e-07  -1.5430723012065821e-06  -3.6355267548870947e-06  -1.9676397371763067e-05  -2.2443266119120665e-05  -5.3981332880647215e-06  -7.2794436221142268e-06  -3.3701106158092917e-05  -4.0367874897739469e-05  -2.4300894269311530e-05  -3.3874485555724088e-06  -7.8342727783849119e-07  -6.7944323349180939e-05  -4.1958225180978451e-05  0.0000000000000000e+00  -7.3122396517785181e-06  -4.9114830000958618e-06  -7.1855781378707474e-05  -6.4026080096289315e-05  -4.0748300217738627e-06  -4.8010341325307641e-05  0.0000000000000000e+00  -8.5545228957694473e-05  -7.6978220926049611e-05  -7.4308585390163858e-06  -1.9961242937694322e-06  -1.1537704890434020e-04  -1.0101508487089615e-04  -5.7810650714631677e-05  0.0000000000000000e+00  -7.1730793136708131e-05  -1.0733728648123470e-05  -1.7360959030666577e-06  -9.7003959571525658e-06  0.0000000000000000e+00  -1.3308092326481787e-06  -3.3805484783933299e-06  -1.8456951921596836e-05  -2.0996989860373014e-05  -5.0418421540051465e-06  -6.7989810093846983e-06  -3.1529358540287021e-05  -3.7866074367548347e-05  -2.2596546988764926e-05  -2.9214754288256603e-06  0.0000000000000000e+00  -6.3565893701061430e-05  -3.8086362340959714e-05  -1.0942887079888808e-05  -6.8380014319573296e-06  0.0000000000000000e+00  -6.6816164143756183e-05  -5.9711221262165672e-05  -3.3625862444329815e-06  -4.5015305406316185e-05  -1.6823055114686321e-04  -7.8788312943945936e-05  -7.1842081932988180e-05  -6.9096940335976351e-06  -1.0132681255763022e-06  -1.0794198638941725e-04  -9.3036259483312301e-05  -4.4525501157725783e-05  -1.5213404914305519e-04  -6.6917994018333028e-05  -3.8113201676133792e-06  -1.5430723012065821e-06  -9.0902956464535376e-06  -4.0837993274765335e-06  -1.0981957028281462e-06  -3.1135308734699106e-06  -1.7305549277201523e-05  -1.9676397371763074e-05  -4.7169386141643746e-06  -6.3608449214660248e-06  -2.9546339339159827e-05  -3.5503869690152578e-05  -2.0811725414679072e-05  -2.4108277002783138e-06  -5.7613662644581979e-05  -5.9567956743829961e-05  -3.3851822746796688e-05  -1.0212756033060919e-05  -6.3584170588156383e-06  -1.1508774506834275e-04  -6.1538590923355217e-05  -5.5704878930219730e-05  -2.5898486847780745e-06  -4.2095819815412966e-05  -1.5700587638593712e-04  -7.1517806629638626e-05  -6.7000485486287187e-05  -6.3639216645879298e-06  0.0000000000000000e+00  -1.0115304295612418e-04  -8.4450966985499885e-05  -3.0319531156541038e-05  -1.4198336479914685e-04  -6.4445221033393374e-07  -3.5544668904774381e-06  -1.3308092326481787e-06  -8.5269242397222658e-06  -3.8113201676133792e-06  -8.4582535282392607e-07  -2.8262173744302901e-06  -1.6183190974810304e-05  -1.8456951921596840e-05  -4.4202697228364924e-06  -5.9607835755131012e-06  -2.7715203872872097e-05  -3.3201252057191636e-05  -1.8891240314982814e-05  -1.8568085678484018e-06  -5.3769565240379858e-05  -5.5876230435679393e-05  -2.9195208946580298e-05  -9.5244958658957540e-06  -5.8561881143113191e-06  -1.0740886332805305e-04  -5.5859871616341448e-05  -5.2028208972739914e-05  -1.7635511301871298e-06  -3.9143422457946840e-05  -1.4642490388669385e-04  -6.3566273187044473e-05  -6.2505067781027101e-05  -5.7766653708903888e-06  -8.2412967625561365e-05  -9.4884079401833939e-05  -7.5061491554267551e-05  -1.5390732230068852e-05  -1.1976884569777367e-06  -5.8498280821796668e-07  -3.3159788664543382e-06  -1.0981957028281462e-06  -7.9949879178485252e-06  -3.5544668904774381e-06  -5.7