<?xml version="1.0"?>
<VTKFile type="UnstructuredGrid"  version="0.1"  >
<UnstructuredGrid>
<Piece  NumberOfPoints="1089" NumberOfCells="2048">
<Points>
<DataArray  type="Float64"  NumberOfComponents="3"  format="ascii">0 0 0  0.03125 0 0  0.0625 0 0  0.09375 0 0  0.125 0 0  0.15625 0 0  0.1875 0 0  0.21875 0 0  0.25 0 0  0.28125 0 0  0.3125 0 0  0.34375 0 0  0.375 0 0  0.40625 0 0  0.4375 0 0  0.46875 0 0  0.5 0 0  0.53125 0 0  0.5625 0 0  0.59375 0 0  0.625 0 0  0.65625 0 0  0.6875 0 0  0.71875 0 0  0.75 0 0  0.78125 0 0  0.8125 0 0  0.84375 0 0  0.875 0 0  0.90625 0 0  0.9375 0 0  0.96875 0 0  1 0 0  0 0.03125 0  0.03125 0.03125 0  0.0625 0.03125 0  0.09375 0.03125 0  0.125 0.03125 0  0.15625 0.03125 0  0.1875 0.03125 0  0.21875 0.03125 0  0.25 0.03125 0  0.28125 0.03125 0  0.3125 0.03125 0  0.34375 0.03125 0  0.375 0.03125 0  0.40625 0.03125 0  0.4375 0.03125 0  0.46875 0.03125 0  0.5 0.03125 0  0.53125 0.03125 0  0.5625 0.03125 0  0.59375 0.03125 0  0.625 0.03125 0  0.65625 0.03125 0  0.6875 0.03125 0  0.71875 0.03125 0  0.75 0.03125 0  0.78125 0.03125 0  0.8125 0.03125 0  0.84375 0.03125 0  0.875 0.03125 0  0.90625 0.03125 0  0.9375 0.03125 0  0.96875 0.03125 0  1 0.03125 0  0 0.0625 0  0.03125 0.0625 0  0.0625 0.0625 0  0.09375 0.0625 0  0.125 0.0625 0  0.15625 0.0625 0  0.1875 0.0625 0  0.21875 0.0625 0  0.25 0.0625 0  0.28125 0.0625 0  0.3125 0.0625 0  0.34375 0.0625 0  0.375 0.0625 0  0.40625 0.0625 0  0.4375 0.0625 0  0.46875 0.0625 0  0.5 0.0625 0  0.53125 0.0625 0  0.5625 0.0625 0  0.59375 0.0625 0  0.625 0.0625 0  0.65625 0.0625 0  0.6875 0.0625 0  0.71875 0.0625 0  0.75 0.0625 0  0.78125 0.0625 0  0.8125 0.0625 0  0.84375 0.0625 0  0.875 0.0625 0  0.90625 0.0625 0  0.9375 0.0625 0  0.96875 0.0625 0  1 0.0625 0  0 0.09375 0  0.03125 0.09375 0  0.0625 0.09375 0  0.09375 0.09375 0  0.125 0.09375 0  0.15625 0.09375 0  0.1875 0.09375 0  0.21875 0.09375 0  0.25 0.09375 0  0.28125 0.09375 0  0.3125 0.09375 0  0.34375 0.09375 0  0.375 0.09375 0  0.40625 0.09375 0  0.4375 0.09375 0  0.46875 0.09375 0  0.5 0.09375 0  0.53125 0.09375 0  0.5625 0.09375 0  0.59375 0.09375 0  0.625 0.09375 0  0.65625 0.09375 0  0.6875 0.09375 0  0.71875 0.09375 0  0.75 0.09375 0  0.78125 0.09375 0  0.8125 0.09375 0  0.84375 0.09375 0  0.875 0.09375 0  0.90625 0.09375 0  0.9375 0.09375 0  0.96875 0.09375 0  1 0.09375 0  0 0.125 0  0.03125 0.125 0  0.0625 0.125 0  0.09375 0.125 0  0.125 0.125 0  0.15625 0.125 0  0.1875 0.125 0  0.21875 0.125 0  0.25 0.125 0  0.28125 0.125 0  0.3125 0.125 0  0.34375 0.125 0  0.375 0.125 0  0.40625 0.125 0  0.4375 0.125 0  0.46875 0.125 0  0.5 0.125 0  0.53125 0.125 0  0.5625 0.125 0  0.59375 0.125 0  0.625 0.125 0  0.65625 0.125 0  0.6875 0.125 0  0.71875 0.125 0  0.75 0.125 0  0.78125 0.125 0  0.8125 0.125 0  0.84375 0.125 0  0.875 0.125 0  0.90625 0.125 0  0.9375 0.125 0  0.96875 0.125 0  1 0.125 0  0 0.15625 0  0.03125 0.15625 0  0.0625 0.15625 0  0.09375 0.15625 0  0.125 0.15625 0  0.15625 0.15625 0  0.1875 0.15625 0  0.21875 0.15625 0  0.25 0.15625 0  0.28125 0.15625 0  0.3125 0.15625 0  0.34375 0.15625 0  0.375 0.15625 0  0.40625 0.15625 0  0.4375 0.15625 0  0.46875 0.15625 0  0.5 0.15625 0  0.53125 0.15625 0  0.5625 0.15625 0  0.59375 0.15625 0  0.625 0.15625 0  0.65625 0.15625 0  0.6875 0.15625 0  0.71875 0.15625 0  0.75 0.15625 0  0.78125 0.15625 0  0.8125 0.15625 0  0.84375 0.15625 0  0.875 0.15625 0  0.90625 0.15625 0  0.9375 0.15625 0  0.96875 0.15625 0  1 0.15625 0  0 0.1875 0  0.03125 0.1875 0  0.0625 0.1875 0  0.09375 0.1875 0  0.125 0.1875 0  0.15625 0.1875 0  0.1875 0.1875 0  0.21875 0.1875 0  0.25 0.1875 0  0.28125 0.1875 0  0.3125 0.1875 0  0.34375 0.1875 0  0.375 0.1875 0  0.40625 0.1875 0  0.4375 0.1875 0  0.46875 0.1875 0  0.5 0.1875 0  0.53125 0.1875 0  0.5625 0.1875 0  0.59375 0.1875 0  0.625 0.1875 0  0.65625 0.1875 0  0.6875 0.1875 0  0.71875 0.1875 0  0.75 0.1875 0  0.78125 0.1875 0  0.8125 0.1875 0  0.84375 0.1875 0  0.875 0.1875 0  0.90625 0.1875 0  0.9375 0.1875 0  0.96875 0.1875 0  1 0.1875 0  0 0.21875 0  0.03125 0.21875 0  0.0625 0.21875 0  0.09375 0.21875 0  0.125 0.21875 0  0.15625 0.21875 0  0.1875 0.21875 0  0.21875 0.21875 0  0.25 0.21875 0  0.28125 0.21875 0  0.3125 0.21875 0  0.34375 0.21875 0  0.375 0.21875 0  0.40625 0.21875 0  0.4375 0.21875 0  0.46875 0.21875 0  0.5 0.21875 0  0.53125 0.21875 0  0.5625 0.21875 0  0.59375 0.21875 0  0.625 0.21875 0  0.65625 0.21875 0  0.6875 0.21875 0  0.71875 0.21875 0  0.75 0.21875 0  0.78125 0.21875 0  0.8125 0.21875 0  0.84375 0.21875 0  0.875 0.21875 0  0.90625 0.21875 0  0.9375 0.21875 0  0.96875 0.21875 0  1 0.21875 0  0 0.25 0  0.03125 0.25 0  0.0625 0.25 0  0.09375 0.25 0  0.125 0.25 0  0.15625 0.25 0  0.1875 0.25 0  0.21875 0.25 0  0.25 0.25 0  0.28125 0.25 0  0.3125 0.25 0  0.34375 0.25 0  0.375 0.25 0  0.40625 0.25 0  0.4375 0.25 0  0.46875 0.25 0  0.5 0.25 0  0.53125 0.25 0  0.5625 0.25 0  0.59375 0.25 0  0.625 0.25 0  0.65625 0.25 0  0.6875 0.25 0  0.71875 0.25 0  0.75 0.25 0  0.78125 0.25 0  0.8125 0.25 0  0.84375 0.25 0  0.875 0.25 0  0.90625 0.25 0  0.9375 0.25 0  0.96875 0.25 0  1 0.25 0  0 0.28125 0  0.03125 0.28125 0  0.0625 0.28125 0  0.09375 0.28125 0  0.125 0.28125 0  0.15625 0.28125 0  0.1875 0.28125 0  0.21875 0.28125 0  0.25 0.28125 0  0.28125 0.28125 0  0.3125 0.28125 0  0.34375 0.28125 0  0.375 0.28125 0  0.40625 0.28125 0  0.4375 0.28125 0  0.46875 0.28125 0  0.5 0.28125 0  0.53125 0.28125 0  0.5625 0.28125 0  0.59375 0.28125 0  0.625 0.28125 0  0.65625 0.28125 0  0.6875 0.28125 0  0.71875 0.28125 0  0.75 0.28125 0  0.78125 0.28125 0  0.8125 0.28125 0  0.84375 0.28125 0  0.875 0.28125 0  0.90625 0.28125 0  0.9375 0.28125 0  0.96875 0.28125 0  1 0.28125 0  0 0.3125 0  0.03125 0.3125 0  0.0625 0.3125 0  0.09375 0.3125 0  0.125 0.3125 0  0.15625 0.3125 0  0.1875 0.3125 0  0.21875 0.3125 0  0.25 0.3125 0  0.28125 0.3125 0  0.3125 0.3125 0  0.34375 0.3125 0  0.375 0.3125 0  0.40625 0.3125 0  0.4375 0.3125 0  0.46875 0.3125 0  0.5 0.3125 0  0.53125 0.3125 0  0.5625 0.3125 0  0.59375 0.3125 0  0.625 0.3125 0  0.65625 0.3125 0  0.6875 0.3125 0  0.71875 0.3125 0  0.75 0.3125 0  0.78125 0.3125 0  0.8125 0.3125 0  0.84375 0.3125 0  0.875 0.3125 0  0.90625 0.3125 0  0.9375 0.3125 0  0.96875 0.3125 0  1 0.3125 0  0 0.34375 0  0.03125 0.34375 0  0.0625 0.34375 0  0.09375 0.34375 0  0.125 0.34375 0  0.15625 0.34375 0  0.1875 0.34375 0  0.21875 0.34375 0  0.25 0.34375 0  0.28125 0.34375 0  0.3125 0.34375 0  0.34375 0.34375 0  0.375 0.34375 0  0.40625 0.34375 0  0.4375 0.34375 0  0.46875 0.34375 0  0.5 0.34375 0  0.53125 0.34375 0  0.5625 0.34375 0  0.59375 0.34375 0  0.625 0.34375 0  0.65625 0.34375 0  0.6875 0.34375 0  0.71875 0.34375 0  0.75 0.34375 0  0.78125 0.34375 0  0.8125 0.34375 0  0.84375 0.34375 0  0.875 0.34375 0  0.90625 0.34375 0  0.9375 0.34375 0  0.96875 0.34375 0  1 0.34375 0  0 0.375 0  0.03125 0.375 0  0.0625 0.375 0  0.09375 0.375 0  0.125 0.375 0  0.15625 0.375 0  0.1875 0.375 0  0.21875 0.375 0  0.25 0.375 0  0.28125 0.375 0  0.3125 0.375 0  0.34375 0.375 0  0.375 0.375 0  0.40625 0.375 0  0.4375 0.375 0  0.46875 0.375 0  0.5 0.375 0  0.53125 0.375 0  0.5625 0.375 0  0.59375 0.375 0  0.625 0.375 0  0.65625 0.375 0  0.6875 0.375 0  0.71875 0.375 0  0.75 0.375 0  0.78125 0.375 0  0.8125 0.375 0  0.84375 0.375 0  0.875 0.375 0  0.90625 0.375 0  0.9375 0.375 0  0.96875 0.375 0  1 0.375 0  0 0.40625 0  0.03125 0.40625 0  0.0625 0.40625 0  0.09375 0.40625 0  0.125 0.40625 0  0.15625 0.40625 0  0.1875 0.40625 0  0.21875 0.40625 0  0.25 0.40625 0  0.28125 0.40625 0  0.3125 0.40625 0  0.34375 0.40625 0  0.375 0.40625 0  0.40625 0.40625 0  0.4375 0.40625 0  0.46875 0.40625 0  0.5 0.40625 0  0.53125 0.40625 0  0.5625 0.40625 0  0.59375 0.40625 0  0.625 0.40625 0  0.65625 0.40625 0  0.6875 0.40625 0  0.71875 0.40625 0  0.75 0.40625 0  0.78125 0.40625 0  0.8125 0.40625 0  0.84375 0.40625 0  0.875 0.40625 0  0.90625 0.40625 0  0.9375 0.40625 0  0.96875 0.40625 0  1 0.40625 0  0 0.4375 0  0.03125 0.4375 0  0.0625 0.4375 0  0.09375 0.4375 0  0.125 0.4375 0  0.15625 0.4375 0  0.1875 0.4375 0  0.21875 0.4375 0  0.25 0.4375 0  0.28125 0.4375 0  0.3125 0.4375 0  0.34375 0.4375 0  0.375 0.4375 0  0.40625 0.4375 0  0.4375 0.4375 0  0.46875 0.4375 0  0.5 0.4375 0  0.53125 0.4375 0  0.5625 0.4375 0  0.59375 0.4375 0  0.625 0.4375 0  0.65625 0.4375 0  0.6875 0.4375 0  0.71875 0.4375 0  0.75 0.4375 0  0.78125 0.4375 0  0.8125 0.4375 0  0.84375 0.4375 0  0.875 0.4375 0  0.90625 0.4375 0  0.9375 0.4375 0  0.96875 0.4375 0  1 0.4375 0  0 0.46875 0  0.03125 0.46875 0  0.0625 0.46875 0  0.09375 0.46875 0  0.125 0.46875 0  0.15625 0.46875 0  0.1875 0.46875 0  0.21875 0.46875 0  0.25 0.46875 0  0.28125 0.46875 0  0.3125 0.46875 0  0.34375 0.46875 0  0.375 0.46875 0  0.40625 0.46875 0  0.4375 0.46875 0  0.46875 0.46875 0  0.5 0.46875 0  0.53125 0.46875 0  0.5625 0.46875 0  0.59375 0.46875 0  0.625 0.46875 0  0.65625 0.46875 0  0.6875 0.46875 0  0.71875 0.46875 0  0.75 0.46875 0  0.78125 0.46875 0  0.8125 0.46875 0  0.84375 0.46875 0  0.875 0.46875 0  0.90625 0.46875 0  0.9375 0.46875 0  0.96875 0.46875 0  1 0.46875 0  0 0.5 0  0.03125 0.5 0  0.0625 0.5 0  0.09375 0.5 0  0.125 0.5 0  0.15625 0.5 0  0.1875 0.5 0  0.21875 0.5 0  0.25 0.5 0  0.28125 0.5 0  0.3125 0.5 0  0.34375 0.5 0  0.375 0.5 0  0.40625 0.5 0  0.4375 0.5 0  0.46875 0.5 0  0.5 0.5 0  0.53125 0.5 0  0.5625 0.5 0  0.59375 0.5 0  0.625 0.5 0  0.65625 0.5 0  0.6875 0.5 0  0.71875 0.5 0  0.75 0.5 0  0.78125 0.5 0  0.8125 0.5 0  0.84375 0.5 0  0.875 0.5 0  0.90625 0.5 0  0.9375 0.5 0  0.96875 0.5 0  1 0.5 0  0 0.53125 0  0.03125 0.53125 0  0.0625 0.53125 0  0.09375 0.53125 0  0.125 0.53125 0  0.15625 0.53125 0  0.1875 0.53125 0  0.21875 0.53125 0  0.25 0.53125 0  0.28125 0.53125 0  0.3125 0.53125 0  0.34375 0.53125 0  0.375 0.53125 0  0.40625 0.53125 0  0.4375 0.53125 0  0.46875 0.53125 0  0.5 0.53125 0  0.53125 0.53125 0  0.5625 0.53125 0  0.59375 0.53125 0  0.625 0.53125 0  0.65625 0.53125 0  0.6875 0.53125 0  0.71875 0.53125 0  0.75 0.53125 0  0.78125 0.531
[...]
<PointData  Scalars="phi"> 
<DataArray  type="Float64"  Name="phi"  format="ascii">0.0000000000000000e+00  0.0000000000000000e+00  0.0000000000000000e+00  0.0000000000000000e+00  0.0000000000000000e+00  0.0000000000000000e+00  0.0000000000000000e+00  0.0000000000000000e+00  0.0000000000000000e+00  0.0000000000000000e+00  0.0000000000000000e+00  0.0000000000000000e+00  0.0000000000000000e+00  0.0000000000000000e+00  0.0000000000000000e+00  0.0000000000000000e+00  0.0000000000000000e+00  0.0000000000000000e+00  0.0000000000000000e+00  0.0000000000000000e+00  0.0000000000000000e+00  0.0000000000000000e+00  0.0000000000000000e+00  0.0000000000000000e+00  0.0000000000000000e+00  0.0000000000000000e+00  0.0000000000000000e+00  0.0000000000000000e+00  0.0000000000000000e+00  0.0000000000000000e+00  0.0000000000000000e+00  0.0000000000000000e+00  0.0000000000000000e+00  0.0000000000000000e+00  -3.7021082211183391e-21  1.2964670260359030e-13  5.1083954917985024e-13  1.2527719914029201e-12  2.4467532427819417e-12  4.1616680946257188e-12  6.4403052669354989e-12  9.2967240260680641e-12  1.2714778451537620e-11  1.6647869544381649e-11  2.1019945633077902e-11  2.5727721877750772e-11  3.0644041505631633e-11  3.5622256369567488e-11  4.0501464143933770e-11  4.5112405465543697e-11  4.9283797883338070e-11  5.2848865616611171e-11  5.5651815535508215e-11  5.7554010822464855e-11  5.8439604447523528e-11  5.8220414548566123e-11  5.6839852396817132e-11  5.4275749965920942e-11  5.0541977252442868e-11  4.5688788723931900e-11  3.9801894000876400e-11  3.3000313914551599e-11  2.5433173717281215e-11  1.7275749081074482e-11  8.7254871216567720e-12  0.0000000000000000e+00  0.0000000000000000e+00  -1.2964671732890038e-13  -1.4646276417075285e-20  6.3244504850190217e-13  1.9861332630667027e-12  4.2440003157594534e-12  7.5443738335943075e-12  1.1973628978540283e-11  1.7560919957438255e-11  2.4275219699751774e-11  3.2024805653659127e-11  4.0659231943013234e-11  4.9973729789554316e-11  5.9715882424517391e-11  6.9594331125343933e-11  7.9289188841112326e-11  8.8463770142004257e-11  9.6777193528912353e-11  1.0389737649953684e-10  1.0951392657928594e-10  1.1335043349005383e-10  1.1517568873643492e-10  1.1481339842875222e-10  1.1215001178671175e-10  1.0714035960022250e-10  9.9810881759424310e-11  9.0260318620625829e-11  7.8657845933000800e-11  6.5238747660903228e-11  5.0297849433183671e-11  3.4181086286166065e-11  1.7275749081074533e-11  0.0000000000000000e+00  0.0000000000000000e+00  -5.1083957107733205e-13  -6.3244509206798890e-13  -3.2400487567893813e-20  1.7142728211064864e-12  4.7854105116792512e-12  9.4220780341990254e-12  1.5755574720124791e-11  2.3831942611028250e-11  3.3607516308316427e-11  4.4948117156119338e-11  5.7631950865689761e-11  7.1356122100508426e-11  8.5746537491940439e-11  1.0037083536586503e-10  1.1475386117242874e-10  1.2839510677332148e-10  1.4078745322272449e-10  1.5143650351134788e-10  1.5987976600300352e-10  1.6570495201922411e-10  1.6856668218765531e-10  1.6820095467284907e-10  1.6443681216367417e-10  1.5720475052416833e-10  1.4654153662824380e-10  1.3259124188258746e-10  1.1560244674958612e-10  9.5921725196521464e-11  7.3983669442998520e-11  5.0297849433183910e-11  2.5433173717281409e-11  0.0000000000000000e+00  0.0000000000000000e+00  -1.2527720202568055e-12  -1.9861333204780799e-12  -1.7142729065070048e-12  -5.6277159720016228e-20  3.5244063077774520e-12  9.1391115905634213e-12  1.7022139174320149e-11  2.7238886476438266e-11  3.9736186538341555e-11  5.4341180635904317e-11  7.0765079255415254e-11  8.8611697549277171e-11  1.0739046445203811e-10  1.2653342917106825e-10  1.4541563149758462e-10  1.6337806935593892e-10  1.7975239334769447e-10  1.9388638776235558e-10  2.0516926335906617e-10  2.1305579053878556e-10  2.1708834226446084e-10  2.1691599276729845e-10  2.1230992785943544e-10  2.0317456146272594e-10  1.8955391554853104e-10  1.7163300085521731e-10  1.4973412629041675e-10  1.2430825719501660e-10  9.5921725196522123e-11  6.5238747660903990e-11  3.3000313914552077e-11  0.0000000000000000e+00  0.0000000000000000e+00  -2.4467532783107001e-12  -4.2440003864564461e-12  -4.7854106168477019e-12  -3.5244064463907932e-12  -8.5355730590818286e-20  6.1407921308741118e-12  1.5124860835204157e-11  2.7039979264951952e-11  4.1827387255555754e-11  5.9280309820082477e-11  7.9048505617725024e-11  1.0064870554618946e-10  1.2348057166454209e-10  1.4684759057584758e-10  1.6998212161701805e-10  1.9207365619561734e-10  2.1229921671573485e-10  2.2985473670057690e-10  2.4398622132953791e-10  2.5401949134206293e-10  2.5938736303217555e-10  2.5965321101129639e-10  2.5452999499295023e-10  2.4389400190093297e-10  2.2779275352920190e-10  2.0644674989179471e-10  1.8024495016571025e-10  1.4973412629041812e-10  1.1560244674958797e-10  7.8657845933002442e-11  3.9801894000877337e-11  0.0000000000000000e+00  0.0000000000000000e+00  -4.1616681364843084e-12  -7.5443739168906035e-12  -9.4220781581150060e-12  -9.1391117538917035e-12  -6.1407923320294126e-12  -1.1851711495832265e-19  9.5613529240808621e-12  2.2656831826059523e-11  3.9226606249516979e-11  5.9035582004222078e-11  8.1678649609196418e-11  1.0659288626422880e-10  1.3307627659117034e-10  1.6031226281952988e-10  1.8739920658173365e-10  2.1338365098538326e-10  2.3729612062635158e-10  2.5818809454694781e-10  2.7516873682010107e-10  2.8743997343530219e-10  2.9432856236696761e-10  2.9531391392100173e-10  2.9005057646016204e-10  2.7838450229977558e-10  2.6036244214478093e-10  2.3623407463692605e-10  2.0644674989179712e-10  1.7163300085522085e-10  1.3259124188259111e-10  9.0260318620628750e-11  4.5688788723933509e-11  0.0000000000000000e+00  0.0000000000000000e+00  -6.4403053147184537e-12  -1.1973629073629188e-11  -1.5755574861588576e-11  -1.7022139360782628e-11  -1.5124861064857206e-11  -9.5613531947017253e-12  -1.5448630614816278e-19  1.3702179444980269e-11  3.1489236950481329e-11  5.3104006277324438e-11  7.8093955895300177e-11  1.0582499505913106e-10  1.3550273965093446e-10  1.6620045205356869e-10  1.9689260833660552e-10  2.2649282480872256e-10  2.5389470322757954e-10  2.7801403635044694e-10  2.9783075762388261e-10  3.1242902291851039e-10  3.2103387819701240e-10  3.2304309235124654e-10  3.1805291434450275e-10  3.0587674129616998e-10  2.8655595040072847e-10  2.6036244214478465e-10  2.2779275352920780e-10  1.8955391554853766e-10  1.4654153662824991e-10  9.9810881759428950e-11  5.0541977252445349e-11  0.0000000000000000e+00  0.0000000000000000e+00  -9.2967240793132601e-12  -1.7560920063400243e-11  -2.3831942768672102e-11  -2.7238886684232533e-11  -2.7039979520883398e-11  -2.2656832127652457e-11  -1.3702179789320355e-11  -1.9188113762338789e-19  1.8402812734525237e-11  4.1233713587450689e-11  6.8000857309223269e-11  9.8008334053701160e-11  1.3037973795725933e-10  1.6408919614268405e-10  1.9799869292492442e-10  2.3090027725194688e-10  2.6156154844655817e-10  2.8877268378232034e-10  3.1139320643093303e-10  3.2839669640137179e-10  3.3891172013351210e-10  3.4225739363112113e-10  3.3797219408051201e-10  3.2583488809747236e-10  3.0587674129617531e-10  2.7838450229978442e-10  2.4389400190094351e-10  2.0317456146273654e-10  1.5720475052417758e-10  1.0714035960022933e-10  5.4275749965924548e-11  0.0000000000000000e+00  0.0000000000000000e+00  -1.2714778509730649e-11  -2.4275219815563202e-11  -3.3607516480617606e-11  -3.9736186765460743e-11  -4.1827387535294233e-11  -3.9226606579170231e-11  -3.1489237326865077e-11  -1.8402813154006093e-11  -2.2926523279728002e-19  2.3438195112967662e-11  5.1389169921398909e-11  8.3105199029163363e-11  1.1763904265132891e-10  1.5387773443501582e-10  1.9058327833503963e-10  2.2643871231613119e-10  2.6009778546286444e-10  2.9023635078264210e-10  3.1560350440597635e-10  3.3507050581540269e-10  3.4767559305754599e-10  3.5266295859638064e-10  3.4951436974366194e-10  3.3797219408051919e-10  3.1805291434451506e-10  2.9005057646017740e-10  2.5452999499296656e-10  2.1230992785945095e-10  1.6443681216368728e-10  1.1215001178672120e-10  5.6839852396822069e-11  0.0000000000000000e+00  0.0000000000000000e+00  -1.6647869606960715e-11  -3.2024805778202012e-11  -4.4948117341414658e-11  -5.4341180880156302e-11  -5.9280310120928299e-11  -5.9035582358754661e-11  -5.3104006682120451e-11  -4.1233714038603512e-11  -2.3438195606125086e-11  -2.6520305786555383e-19  2.8536290543339104e-11  6.1381577316423698e-11  9.7529606603711117e-11  1.3579316267601287e-10  1.7484772124931088e-10  2.1328090846321617e-10  2.4964588037690486e-10  2.8251658247831603e-10  3.1054277113098635e-10  3.3250268252920707e-10  3.4735131949618433e-10  3.5426248912308257e-10  3.5266295859638984e-10  3.4225739363113731e-10  3.2304309235126737e-10  2.9531391392102484e-10  2.5965321101131955e-10  2.1691599276731970e-10  1.6820095467286662e-10  1.1481339842876470e-10  5.8220414548572612e-11  0.0000000000000000e+00  0.0000000000000000e+00  -2.1019945699439204e-11  -4.0659232075085938e-11  -5.7631951062191517e-11  -7.0765079514443696e-11  -7.9048505936776135e-11  -8.1678649985188703e-11  -7.8093956324604408e-11  -6.8000857787697403e-11  -5.1389170444428106e-11  -2.8536291105880143e-11  -2.9831496894627320e-19  3.3399885765058341e-11  7.0610339158108075e-11  1.1038333914510399e-10  1.5132204023425997e-10  1.9193313408497664e-10  2.3068340762637009e-10  2.6605833391699480e-10  2.9662044937416274e-10  3.2106527424915456e-10  3.3827262253690555e-10  3.4735131949619555e-10  3.4767559305756615e-10  3.3891172013353878e-10  3.2103387819704296e-10  2.9432856236699961e-10  2.5938736303220651e-10  2.1708834226448853e-10  1.6856668218767780e-10  1.1517568873645078e-10  5.8439604447531722e-11  0.0000000000000000e+00  0.0000000000000000e+00  -2.5727721947254296e-11  -4.9973729927883103e-11  -7.1356122306321586e-11  -8.8611697820584153e-11  -1.0064870588036930e-10  -1.0659288665805542e-10  -1.0582499550880438e-10  -9.8008334554883793e-11  -8.3105199577022389e-11  -6.1381577905677311e-11  -3.3399886390026762e-11  -3.2733010886353088e-19  3.7730723288962395e-11  7.8497299094646741e-11  1.2084533149795800e-10  1.6321576105979731e-10  2.0400404803150556e-10  2.4162152760189590e-10  2.7455658389468923e-10  3.0143329249986243e-10  3.2106527424916769e-10  3.3250268252923116e-10  3.3507050581543531e-10  3.2839669640141020e-10  3.1242902291855185e-10  2.8743997343534391e-10  2.5401949134210237e-10  2.1305579053882023e-10  1.6570495201925200e-10  1.1335043349007334e-10  5.7554010822474891e-11  0.0000000000000000e+00  0.0000000000000000e+00  -3.0644041577607294e-11  -5.9715882567768658e-11  -8.5746537705080843e-11  -1.0739046473300817e-10  -1.2348057201062921e-10  -1.3307627699903505e-10  -1.3550274011664255e-10  -1.3037973847631989e-10  -1.1763904321873767e-10  -9.7529607213998614e-11  -7.0610339805392505e-11  -3.7730723967006221e-11  -3.5113508588831984e-19  4.1253915812206696e-11  8.4534222098811621e-11  1.2823182062922572e-10  1.7068654997304140e-10  2.1025071173384740e-10  2.4535245498799912e-10  2.7455658389470407e-10  2.9662044937419050e-10  3.1054277113102466e-10  3.1560350440602252e-10  3.1139320643098416e-10  2.9783075762393576e-10  2.7516873682015323e-10  2.4398622132958625e-10  2.0516926335910821e-10  1.5987976600303705e-10  1.0951392657930927e-10  5.5651815535520183e-11  0.0000000000000000e+00  0.0000000000000000e+00  -3.5622256443321587e-11  -6.9594331272137046e-11  -1.0037083558427849e-10  -1.2653342945899354e-10  -1.4684759093050667e-10  -1.6031226323750212e-10  -1.6620045253082373e-10  -1.6408919667462082e-10  -1.5387773501650691e-10  -1.3579316330145395e-10  -1.1038333980846789e-10  -7.8497299789541631e-11  -4.1253916531937581e-11  -3.6881668446226503e-19  4.3740565664920223e-11  8.8324708738875026e-11  1.3205285137667308e-10  1.7323399600751528e-10  2.1025071173386360e-10  2.4162152760192677e-10  2.6605833391703812e-10  2.8251658247836933e-10  2.9023635078270249e-10  2.8877268378238470e-10  2.7801403635051213e-10  2.5818809454701068e-10  2.2985473670063447e-10  1.9388638776240514e-10  1.5143650351138720e-10  1.0389737649956406e-10  5.2848865616625097e-11  0.0000000000000000e+00  0.0000000000000000e+00  -4.0501464218755656e-11  -7.9289188990032883e-11  -1.1475386139401080e-10  -1.4541563178969100e-10  -1.6998212197683203e-10  -1.8739920700578639e-10  -1.9689260882080942e-10  -1.9799869346461259e-10  -1.9058327892501097e-10  -1.7484772188388024e-10  -1.5132204090731292e-10  -1.2084533220300994e-10  -8.4534222829070189e-11  -4.3740566413350830e-11  -3.7969681037456404e-19  4.5026664504056968e-11  8.9616975240135044e-11  1.3205285137669024e-10  1.7068654997307459e-10  2.0400404803155304e-10  2.3068340762642952e-10  2.4964588037697351e-10  2.6009778546293925e-10  2.6156154844663593e-10  2.5389470322765682e-10  2.3729612062642515e-10  2.1229921671580151e-10  1.7975239334775149e-10  1.4078745322276944e-10  9.6777193528943411e-11  4.9283797883353916e-11  0.0000000000000000e+00  0.0000000000000000e+00  -4.5112405540712630e-11  -8.8463770291617732e-11  -1.2839510699593771e-10  -1.6337806964941252e-10  -1.9207365655712021e-10  -2.1338365141143179e-10  -2.2649282529521123e-10  -2.3090027779418802e-10  -2.2643871290890014e-10  -2.1328090910080161e-10  -1.9193313476123585e-10  -1.6321576176821541e-10  -1.2823182136297835e-10  -8.8324709490894337e-11  -4.5026665267099579e-11  -3.8335844095635899e-19  4.5026664504074655e-11  8.8324708738909742e-11  1.2823182062927610e-10  1.6321576105986147e-10  1.9193313408505207e-10  2.1328090846329998e-10  2.2643871231622014e-10  2.3090027725203756e-10  2.2649282480881148e-10  2.1338365098546702e-10  1.9207365619569271e-10  1.6337806935600300e-10  1.2839510677337184e-10  8.8463770142038934e-11  4.5112405465561371e-11  0.0000000000000000e+00  0.0000000000000000e+00  -4.9283797958130119e-11  -9.6777193677777915e-11  -1.4078745344423092e-10  -1.7975239363970908e-10  -2.1229921707544517e-10  -2.3729612105029287e-10  -2.5389470371166791e-10  -2.6156154898613021e-10  -2.6009778605272218e-10  -2.4964588101136604e-10  -2.3068340829932278e-10  -2.0400404873646731e-10  -1.7068655070322167e-10  -1.3205285212503873e-10  -8.9616975999478135e-11  -4.5026665267081885e-11  -3.7966158906142477e-19  4.3740565664972122e-11  8.4534222098878701e-11  1.2084533149803818e-10  1.5132204023435065e-10  1.7484772124940898e-10  1.9058327833514181e-10  1.9799869292502720e-10  1.9689260833670525e-10  1.8739920658182686e-10  1.6998212161710144e-10  1.4541563149765522e-10  1.1475386117248400e-10  7.9289188841150299e-11  4.0501464143953099e-11  0.0000000000000000e+00  0.0000000000000000e+00  -5.2848865690306249e-11  -1.0389737664622115e-10  -1.5143650372961187e-10  -1.9388638805009954e-10  -2.2985473705503127e-10  -2.5818809496469987e-10  -2.7801403682747383e-10  -2.8877268431402780e-10  -2.9023635136390905e-10  -2.8251658310354375e-10  -2.6605833458016100e-10  -2.4162152829661305e-10  -2.1025071245342406e-10  -1.7323399674502081e-10  -1.3205285212502154e-10  -8.8324709490859647e-11  -4.3740566413298938e-11  -3.6874859947124927e-19  4.1253915812289343e-11  7.8497299094741725e-11  1.1038333914520858e-10  1.3579316267612392e-10  1.5387773443512992e-10  1.6408919614279756e-10  1.6620045205367795e-10  1.6031226281963136e-10  1.4684759057593792e-10  1.2653342917114443e-10  1.0037083536592452e-10  6.9594331125384749e-11  3.5622256369588245e-11  0.0000000000000000e+00  0.0000000000000000e+00  -5.5651815607396950e-11  -1.0951392672237707e-10  -1.5987976621592405e-10  -2.0516926363976968e-10  -2.4398622167532422e-10  -2.7516873722764251e-10  -2.9783075808925587e-10  -3.1139320694965732e-10  -3.1560350497305653e-10  -3.1054277174096122e-10  -2.9662045002115772e-10  -2.7455658457247301e-10  -2.4535245569004385e-10  -2.1025071245340786e-10  -1.7068655070318845e-10  -1.2823182136292797e-10  -8.4534222829003110e-11  -4.1253916531854941e-11  -3.5103863354155243e-19  3.7730723289070342e-11  7.0610339158224721e-11  9.7529606603833230e-11  1.1763904265145304e-10  1.3037973795738180e-10  1.3550273965105161e-10  1.3307627659127859e-10  1.2348057166463804e-10  1.0739046445211882e-10  8.5746537492003318e-11  5.9715882424560469e-11  3.0644041505653515e-11  0.0000000000000000e+00  0.0000000000000000e+00  -5.7554010891855453e-11  -1.1335043362817480e-10  -1.6570495222475221e-10  -2.1305579080974724e-10  -2.5401949167585347e-10  -2.8743997382871069e-10  -3.1242902336775099e-10  -3.2839669690212021e-10  -3.3507050636283779e-10  -3.3250268311805767e-10  -3.2106527487375022e-10  -3.0143329315418809e-10  -2.7455658457245823e-10  -2.4162152829658224e-10  -2.0400404873641985e-10  -1.6321576176815128e-10  -1.2084533220292976e-10  -7.8497299789446648e-11  -3.7730723966898274e-11  -3.2721156600938671e-19  3.3399885765184628e-11  6.1381577316554509e-11  8.3105199029295195e-11  9.8008334053830395e-11  1.0582499505925402e-10  1.0659288626434194e-10  1.0064870554628944e-10  8.8611697549361052e-11  7.1356122100573657e-11  4.9973729789598938e-11  2.5727721877773429e-11  0.0000000000000000e+00  0.0000000000000000e+00  -5.8439604513748461e-11  -1.1517568886825696e-10  -1.6856668238381364e-10  -2.1708834252307385e-10  -2.5938736335075878e-10  -2.9432856274245797e-10  -3.2103387862579771e-10  -3.3891172061146606e-10  -3.4767559358006781e-10  -3.4735132005824358e-10  -3.3827262313309029e-10  -3.2106527487373714e-10  -2.9662045002113001e-10  -2.6605833458011768e-10  -2.3068340829926335e-10  -1.9193313476116047e-10  -1.5132204090722227e-10  -1.1038333980836331e-10  -7.0610339805275859e-11  -3.3399886389900475e-11  -2.9818187779110618e-19  2.8536290543475802e-11  5.1389169921535769e-11  6.8000857309356704e-11  7.8093955895426594e-11  8.1678649609312353e-11  7.9048505617827207e-11  7.0765079255500789e-11  5.7631950865756181e-11  4.0659231943058626e-11  2.1019945633100934e-11  0.0000000000000000e+00  0.0000000000000000e+00  -5.8220414610988520e-11  -1.1481339855300763e-10  -1.6820095485775121e-10  -2.1691599301107550e-10  -2.5965321131160809e-10  -2.9531391427496213e-10  -3.2304309275545181e-10  -3.4225739408168248e-10  -3.5266295908896194e-10  -3.5426248965294221e-10  -3.4735132005823236e-10  -3.3250268311803363e-10  -3.1054277174092302e-10  -2.8251658310349045e-10  -2.4964588101129738e-10  -2.1328090910071783e-10  -1.7484772188378212e-10  -1.3579316330134288e-10  -9.7529607213876489e-11  -6.1381577905546513e-11  -2.8536291105743445e-11  -2.6506359215783636e-19  2.3438195113106545e-11  4.1233713587585513e-11  5.3104006277451740e-11  5.9035582004338478e-11  5.9280309820184841e-11  5.4341180635989859e-11  4.4948117156185687e-11  3.2024805653704428e-11  1.6647869544404622e-11  0.0000000000000000e+00  0.0000000000000000e+00  -5.6839852454836963e-11  -1.1215001190220611e-10  -1.6443681233554258e-10  -2.1230992808603286e-10  -2.5452999527210300e-10  -2.9005057678918895e-10  -3.1805291472024086e-10  -3.3797219449934741e-10  -3.4951437020156462e-10  -3.5266295908895274e-10  -3.4767559358004770e-10  -3.3507050636280522e-10  -3.1560350497301047e-10  -2.9023635136384867e-10  -2.6009778605264737e-10  -2.2643871290881117e-10  -1.9058327892490877e-10  -1.5387773501639281e-10  -1.1763904321861356e-10  -8.3105199576890557e-11  -5.1389170444291246e-11  -2.3438195605986203e-11  -2.2912753041738875e-19  1.8402812734658445e-11  3.1489236950606737e-11  3.9226606249631388e-11  4.1827387255656192e-11  3.9736186538425359e-11  3.3607516308381361e-11  2.4275219699796076e-11  1.2714778451560080e-11  0.0000000000000000e+00  0.0000000000000000e+00  -5.4275750018980817e-11  -1.0714035970584618e-10  -1.5720475068135164e-10  -2.0317456166996635e-10  -2.4389400215624407e-10  -2.7838450260070652e-10  -3.0587674163982899e-10  -3.2583488848055500e-10  -3.3797219449934023e-10  -3.4225739408166640e-10  -3.3891172061143948e-10  -3.2839669690208185e-10  -3.1139320694960624e-10  -2.8877268431396348e-10  -2.6156154898605250e-10  -2.3090027779409734e-10  -1.9799869346450984e-10  -1.6408919667450732e-10  -1.3037973847619745e-10  -9.8008334554754559e-11  -6.8000857787563968e-11  -4.1233714038468688e-11  -1.8402813153872885e-11  -1.9175264956389082e-19  1.3702179