<?xml version="1.0"?>
<VTKFile type="UnstructuredGrid"  version="0.1"  >
<UnstructuredGrid>
<Piece  NumberOfPoints="1089" NumberOfCells="2048">
<Points>
<DataArray  type="Float64"  NumberOfComponents="3"  format="ascii">0 0 0  0.03125 0 0  0.0625 0 0  0.09375 0 0  0.125 0 0  0.15625 0 0  0.1875 0 0  0.21875 0 0  0.25 0 0  0.28125 0 0  0.3125 0 0  0.34375 0 0  0.375 0 0  0.40625 0 0  0.4375 0 0  0.46875 0 0  0.5 0 0  0.53125 0 0  0.5625 0 0  0.59375 0 0  0.625 0 0  0.65625 0 0  0.6875 0 0  0.71875 0 0  0.75 0 0  0.78125 0 0  0.8125 0 0  0.84375 0 0  0.875 0 0  0.90625 0 0  0.9375 0 0  0.96875 0 0  1 0 0  0 0.03125 0  0.03125 0.03125 0  0.0625 0.03125 0  0.09375 0.03125 0  0.125 0.03125 0  0.15625 0.03125 0  0.1875 0.03125 0  0.21875 0.03125 0  0.25 0.03125 0  0.28125 0.03125 0  0.3125 0.03125 0  0.34375 0.03125 0  0.375 0.03125 0  0.40625 0.03125 0  0.4375 0.03125 0  0.46875 0.03125 0  0.5 0.03125 0  0.53125 0.03125 0  0.5625 0.03125 0  0.59375 0.03125 0  0.625 0.03125 0  0.65625 0.03125 0  0.6875 0.03125 0  0.71875 0.03125 0  0.75 0.03125 0  0.78125 0.03125 0  0.8125 0.03125 0  0.84375 0.03125 0  0.875 0.03125 0  0.90625 0.03125 0  0.9375 0.03125 0  0.96875 0.03125 0  1 0.03125 0  0 0.0625 0  0.03125 0.0625 0  0.0625 0.0625 0  0.09375 0.0625 0  0.125 0.0625 0  0.15625 0.0625 0  0.1875 0.0625 0  0.21875 0.0625 0  0.25 0.0625 0  0.28125 0.0625 0  0.3125 0.0625 0  0.34375 0.0625 0  0.375 0.0625 0  0.40625 0.0625 0  0.4375 0.0625 0  0.46875 0.0625 0  0.5 0.0625 0  0.53125 0.0625 0  0.5625 0.0625 0  0.59375 0.0625 0  0.625 0.0625 0  0.65625 0.0625 0  0.6875 0.0625 0  0.71875 0.0625 0  0.75 0.0625 0  0.78125 0.0625 0  0.8125 0.0625 0  0.84375 0.0625 0  0.875 0.0625 0  0.90625 0.0625 0  0.9375 0.0625 0  0.96875 0.0625 0  1 0.0625 0  0 0.09375 0  0.03125 0.09375 0  0.0625 0.09375 0  0.09375 0.09375 0  0.125 0.09375 0  0.15625 0.09375 0  0.1875 0.09375 0  0.21875 0.09375 0  0.25 0.09375 0  0.28125 0.09375 0  0.3125 0.09375 0  0.34375 0.09375 0  0.375 0.09375 0  0.40625 0.09375 0  0.4375 0.09375 0  0.46875 0.09375 0  0.5 0.09375 0  0.53125 0.09375 0  0.5625 0.09375 0  0.59375 0.09375 0  0.625 0.09375 0  0.65625 0.09375 0  0.6875 0.09375 0  0.71875 0.09375 0  0.75 0.09375 0  0.78125 0.09375 0  0.8125 0.09375 0  0.84375 0.09375 0  0.875 0.09375 0  0.90625 0.09375 0  0.9375 0.09375 0  0.96875 0.09375 0  1 0.09375 0  0 0.125 0  0.03125 0.125 0  0.0625 0.125 0  0.09375 0.125 0  0.125 0.125 0  0.15625 0.125 0  0.1875 0.125 0  0.21875 0.125 0  0.25 0.125 0  0.28125 0.125 0  0.3125 0.125 0  0.34375 0.125 0  0.375 0.125 0  0.40625 0.125 0  0.4375 0.125 0  0.46875 0.125 0  0.5 0.125 0  0.53125 0.125 0  0.5625 0.125 0  0.59375 0.125 0  0.625 0.125 0  0.65625 0.125 0  0.6875 0.125 0  0.71875 0.125 0  0.75 0.125 0  0.78125 0.125 0  0.8125 0.125 0  0.84375 0.125 0  0.875 0.125 0  0.90625 0.125 0  0.9375 0.125 0  0.96875 0.125 0  1 0.125 0  0 0.15625 0  0.03125 0.15625 0  0.0625 0.15625 0  0.09375 0.15625 0  0.125 0.15625 0  0.15625 0.15625 0  0.1875 0.15625 0  0.21875 0.15625 0  0.25 0.15625 0  0.28125 0.15625 0  0.3125 0.15625 0  0.34375 0.15625 0  0.375 0.15625 0  0.40625 0.15625 0  0.4375 0.15625 0  0.46875 0.15625 0  0.5 0.15625 0  0.53125 0.15625 0  0.5625 0.15625 0  0.59375 0.15625 0  0.625 0.15625 0  0.65625 0.15625 0  0.6875 0.15625 0  0.71875 0.15625 0  0.75 0.15625 0  0.78125 0.15625 0  0.8125 0.15625 0  0.84375 0.15625 0  0.875 0.15625 0  0.90625 0.15625 0  0.9375 0.15625 0  0.96875 0.15625 0  1 0.15625 0  0 0.1875 0  0.03125 0.1875 0  0.0625 0.1875 0  0.09375 0.1875 0  0.125 0.1875 0  0.15625 0.1875 0  0.1875 0.1875 0  0.21875 0.1875 0  0.25 0.1875 0  0.28125 0.1875 0  0.3125 0.1875 0  0.34375 0.1875 0  0.375 0.1875 0  0.40625 0.1875 0  0.4375 0.1875 0  0.46875 0.1875 0  0.5 0.1875 0  0.53125 0.1875 0  0.5625 0.1875 0  0.59375 0.1875 0  0.625 0.1875 0  0.65625 0.1875 0  0.6875 0.1875 0  0.71875 0.1875 0  0.75 0.1875 0  0.78125 0.1875 0  0.8125 0.1875 0  0.84375 0.1875 0  0.875 0.1875 0  0.90625 0.1875 0  0.9375 0.1875 0  0.96875 0.1875 0  1 0.1875 0  0 0.21875 0  0.03125 0.21875 0  0.0625 0.21875 0  0.09375 0.21875 0  0.125 0.21875 0  0.15625 0.21875 0  0.1875 0.21875 0  0.21875 0.21875 0  0.25 0.21875 0  0.28125 0.21875 0  0.3125 0.21875 0  0.34375 0.21875 0  0.375 0.21875 0  0.40625 0.21875 0  0.4375 0.21875 0  0.46875 0.21875 0  0.5 0.21875 0  0.53125 0.21875 0  0.5625 0.21875 0  0.59375 0.21875 0  0.625 0.21875 0  0.65625 0.21875 0  0.6875 0.21875 0  0.71875 0.21875 0  0.75 0.21875 0  0.78125 0.21875 0  0.8125 0.21875 0  0.84375 0.21875 0  0.875 0.21875 0  0.90625 0.21875 0  0.9375 0.21875 0  0.96875 0.21875 0  1 0.21875 0  0 0.25 0  0.03125 0.25 0  0.0625 0.25 0  0.09375 0.25 0  0.125 0.25 0  0.15625 0.25 0  0.1875 0.25 0  0.21875 0.25 0  0.25 0.25 0  0.28125 0.25 0  0.3125 0.25 0  0.34375 0.25 0  0.375 0.25 0  0.40625 0.25 0  0.4375 0.25 0  0.46875 0.25 0  0.5 0.25 0  0.53125 0.25 0  0.5625 0.25 0  0.59375 0.25 0  0.625 0.25 0  0.65625 0.25 0  0.6875 0.25 0  0.71875 0.25 0  0.75 0.25 0  0.78125 0.25 0  0.8125 0.25 0  0.84375 0.25 0  0.875 0.25 0  0.90625 0.25 0  0.9375 0.25 0  0.96875 0.25 0  1 0.25 0  0 0.28125 0  0.03125 0.28125 0  0.0625 0.28125 0  0.09375 0.28125 0  0.125 0.28125 0  0.15625 0.28125 0  0.1875 0.28125 0  0.21875 0.28125 0  0.25 0.28125 0  0.28125 0.28125 0  0.3125 0.28125 0  0.34375 0.28125 0  0.375 0.28125 0  0.40625 0.28125 0  0.4375 0.28125 0  0.46875 0.28125 0  0.5 0.28125 0  0.53125 0.28125 0  0.5625 0.28125 0  0.59375 0.28125 0  0.625 0.28125 0  0.65625 0.28125 0  0.6875 0.28125 0  0.71875 0.28125 0  0.75 0.28125 0  0.78125 0.28125 0  0.8125 0.28125 0  0.84375 0.28125 0  0.875 0.28125 0  0.90625 0.28125 0  0.9375 0.28125 0  0.96875 0.28125 0  1 0.28125 0  0 0.3125 0  0.03125 0.3125 0  0.0625 0.3125 0  0.09375 0.3125 0  0.125 0.3125 0  0.15625 0.3125 0  0.1875 0.3125 0  0.21875 0.3125 0  0.25 0.3125 0  0.28125 0.3125 0  0.3125 0.3125 0  0.34375 0.3125 0  0.375 0.3125 0  0.40625 0.3125 0  0.4375 0.3125 0  0.46875 0.3125 0  0.5 0.3125 0  0.53125 0.3125 0  0.5625 0.3125 0  0.59375 0.3125 0  0.625 0.3125 0  0.65625 0.3125 0  0.6875 0.3125 0  0.71875 0.3125 0  0.75 0.3125 0  0.78125 0.3125 0  0.8125 0.3125 0  0.84375 0.3125 0  0.875 0.3125 0  0.90625 0.3125 0  0.9375 0.3125 0  0.96875 0.3125 0  1 0.3125 0  0 0.34375 0  0.03125 0.34375 0  0.0625 0.34375 0  0.09375 0.34375 0  0.125 0.34375 0  0.15625 0.34375 0  0.1875 0.34375 0  0.21875 0.34375 0  0.25 0.34375 0  0.28125 0.34375 0  0.3125 0.34375 0  0.34375 0.34375 0  0.375 0.34375 0  0.40625 0.34375 0  0.4375 0.34375 0  0.46875 0.34375 0  0.5 0.34375 0  0.53125 0.34375 0  0.5625 0.34375 0  0.59375 0.34375 0  0.625 0.34375 0  0.65625 0.34375 0  0.6875 0.34375 0  0.71875 0.34375 0  0.75 0.34375 0  0.78125 0.34375 0  0.8125 0.34375 0  0.84375 0.34375 0  0.875 0.34375 0  0.90625 0.34375 0  0.9375 0.34375 0  0.96875 0.34375 0  1 0.34375 0  0 0.375 0  0.03125 0.375 0  0.0625 0.375 0  0.09375 0.375 0  0.125 0.375 0  0.15625 0.375 0  0.1875 0.375 0  0.21875 0.375 0  0.25 0.375 0  0.28125 0.375 0  0.3125 0.375 0  0.34375 0.375 0  0.375 0.375 0  0.40625 0.375 0  0.4375 0.375 0  0.46875 0.375 0  0.5 0.375 0  0.53125 0.375 0  0.5625 0.375 0  0.59375 0.375 0  0.625 0.375 0  0.65625 0.375 0  0.6875 0.375 0  0.71875 0.375 0  0.75 0.375 0  0.78125 0.375 0  0.8125 0.375 0  0.84375 0.375 0  0.875 0.375 0  0.90625 0.375 0  0.9375 0.375 0  0.96875 0.375 0  1 0.375 0  0 0.40625 0  0.03125 0.40625 0  0.0625 0.40625 0  0.09375 0.40625 0  0.125 0.40625 0  0.15625 0.40625 0  0.1875 0.40625 0  0.21875 0.40625 0  0.25 0.40625 0  0.28125 0.40625 0  0.3125 0.40625 0  0.34375 0.40625 0  0.375 0.40625 0  0.40625 0.40625 0  0.4375 0.40625 0  0.46875 0.40625 0  0.5 0.40625 0  0.53125 0.40625 0  0.5625 0.40625 0  0.59375 0.40625 0  0.625 0.40625 0  0.65625 0.40625 0  0.6875 0.40625 0  0.71875 0.40625 0  0.75 0.40625 0  0.78125 0.40625 0  0.8125 0.40625 0  0.84375 0.40625 0  0.875 0.40625 0  0.90625 0.40625 0  0.9375 0.40625 0  0.96875 0.40625 0  1 0.40625 0  0 0.4375 0  0.03125 0.4375 0  0.0625 0.4375 0  0.09375 0.4375 0  0.125 0.4375 0  0.15625 0.4375 0  0.1875 0.4375 0  0.21875 0.4375 0  0.25 0.4375 0  0.28125 0.4375 0  0.3125 0.4375 0  0.34375 0.4375 0  0.375 0.4375 0  0.40625 0.4375 0  0.4375 0.4375 0  0.46875 0.4375 0  0.5 0.4375 0  0.53125 0.4375 0  0.5625 0.4375 0  0.59375 0.4375 0  0.625 0.4375 0  0.65625 0.4375 0  0.6875 0.4375 0  0.71875 0.4375 0  0.75 0.4375 0  0.78125 0.4375 0  0.8125 0.4375 0  0.84375 0.4375 0  0.875 0.4375 0  0.90625 0.4375 0  0.9375 0.4375 0  0.96875 0.4375 0  1 0.4375 0  0 0.46875 0  0.03125 0.46875 0  0.0625 0.46875 0  0.09375 0.46875 0  0.125 0.46875 0  0.15625 0.46875 0  0.1875 0.46875 0  0.21875 0.46875 0  0.25 0.46875 0  0.28125 0.46875 0  0.3125 0.46875 0  0.34375 0.46875 0  0.375 0.46875 0  0.40625 0.46875 0  0.4375 0.46875 0  0.46875 0.46875 0  0.5 0.46875 0  0.53125 0.46875 0  0.5625 0.46875 0  0.59375 0.46875 0  0.625 0.46875 0  0.65625 0.46875 0  0.6875 0.46875 0  0.71875 0.46875 0  0.75 0.46875 0  0.78125 0.46875 0  0.8125 0.46875 0  0.84375 0.46875 0  0.875 0.46875 0  0.90625 0.46875 0  0.9375 0.46875 0  0.96875 0.46875 0  1 0.46875 0  0 0.5 0  0.03125 0.5 0  0.0625 0.5 0  0.09375 0.5 0  0.125 0.5 0  0.15625 0.5 0  0.1875 0.5 0  0.21875 0.5 0  0.25 0.5 0  0.28125 0.5 0  0.3125 0.5 0  0.34375 0.5 0  0.375 0.5 0  0.40625 0.5 0  0.4375 0.5 0  0.46875 0.5 0  0.5 0.5 0  0.53125 0.5 0  0.5625 0.5 0  0.59375 0.5 0  0.625 0.5 0  0.65625 0.5 0  0.6875 0.5 0  0.71875 0.5 0  0.75 0.5 0  0.78125 0.5 0  0.8125 0.5 0  0.84375 0.5 0  0.875 0.5 0  0.90625 0.5 0  0.9375 0.5 0  0.96875 0.5 0  1 0.5 0  0 0.53125 0  0.03125 0.53125 0  0.0625 0.53125 0  0.09375 0.53125 0  0.125 0.53125 0  0.15625 0.53125 0  0.1875 0.53125 0  0.21875 0.53125 0  0.25 0.53125 0  0.28125 0.53125 0  0.3125 0.53125 0  0.34375 0.53125 0  0.375 0.53125 0  0.40625 0.53125 0  0.4375 0.53125 0  0.46875 0.53125 0  0.5 0.53125 0  0.53125 0.53125 0  0.5625 0.53125 0  0.59375 0.53125 0  0.625 0.53125 0  0.65625 0.53125 0  0.6875 0.53125 0  0.71875 0.53125 0  0.75 0.53125 0  0.78125 0.531
[...]
<PointData  Scalars="phi"> 
<DataArray  type="Float64"  Name="phi"  format="ascii">0.0000000000000000e+00  0.0000000000000000e+00  0.0000000000000000e+00  0.0000000000000000e+00  0.0000000000000000e+00  0.0000000000000000e+00  0.0000000000000000e+00  0.0000000000000000e+00  0.0000000000000000e+00  0.0000000000000000e+00  0.0000000000000000e+00  0.0000000000000000e+00  0.0000000000000000e+00  0.0000000000000000e+00  0.0000000000000000e+00  0.0000000000000000e+00  0.0000000000000000e+00  0.0000000000000000e+00  0.0000000000000000e+00  0.0000000000000000e+00  0.0000000000000000e+00  0.0000000000000000e+00  0.0000000000000000e+00  0.0000000000000000e+00  0.0000000000000000e+00  0.0000000000000000e+00  0.0000000000000000e+00  0.0000000000000000e+00  0.0000000000000000e+00  0.0000000000000000e+00  0.0000000000000000e+00  0.0000000000000000e+00  0.0000000000000000e+00  0.0000000000000000e+00  -2.3327012667565911e-20  1.0968282778607677e-11  4.3217701137217862e-11  1.0598616553382758e-10  2.0699855597675708e-10  3.5208261675115155e-10  5.4485833005716782e-10  7.8651512838766090e-10  1.0756870455513589e-09  1.4084317447133638e-09  1.7783151540565010e-09  2.1765992397674237e-09  2.5925263709941326e-09  3.0136899208791092e-09  3.4264773402477849e-09  3.8165690635149908e-09  4.1694743691909044e-09  4.4710838060476690e-09  4.7082170696191711e-09  4.8691453021094045e-09  4.9440676918416321e-09  4.9255239368626259e-09  4.8087265560099882e-09  4.5918001049890901e-09  4.2759180038226457e-09  3.8653318468142058e-09  3.3672927810146721e-09  2.7918701258857225e-09  2.1516800746542507e-09  1.4615511805769102e-09  7.3818773031998296e-10  0.0000000000000000e+00  0.0000000000000000e+00  -1.0968282871387318e-11  -9.2277265837617774e-20  5.3505687773913997e-11  1.6802949843101509e-10  3.5904803248455353e-10  6.3826398979752254e-10  1.0129848231017882e-09  1.4856770167815651e-09  2.0537156397029121e-09  2.7093408428843007e-09  3.4398247065791345e-09  4.2278435218044897e-09  5.0520424966754691e-09  5.8877722986048968e-09  6.7079700607629986e-09  7.4841517512883625e-09  8.1874783453185385e-09  8.7898552247381248e-09  9.2650227764119237e-09  9.5895963258918605e-09  9.7440153292230099e-09  9.7133650905948121e-09  9.4880390640855395e-09  9.0642158748916276e-09  8.4441323726290553e-09  7.6361421218044085e-09  6.6545576141510464e-09  5.5192841836841065e-09  4.2552644678433510e-09  2.8917650274165522e-09  1.4615511805769143e-09  0.0000000000000000e+00  0.0000000000000000e+00  -4.3217701275176583e-11  -5.3505688048376737e-11  -2.0410527896184467e-19  1.4502974722209554e-10  4.0485205118820549e-10  7.9712024573696198e-10  1.3329424276464491e-09  2.0162138144125638e-09  2.8432402556604493e-09  3.8026700599529954e-09  4.8757391376406119e-09  6.0368221433618434e-09  7.2542702842420771e-09  8.4915051918365036e-09  9.7083281639182050e-09  1.0862395551205369e-08  1.1910804421374048e-08  1.2811728134727181e-08  1.3526039288254934e-08  1.4018857715450289e-08  1.4260963865438979e-08  1.4230022834405816e-08  1.3911571408132529e-08  1.3299729444961069e-08  1.2397607470970254e-08  1.1217394117377518e-08  9.7801196194877174e-09  8.1151045924930105e-09  6.2591161119357354e-09  4.2552644678433717e-09  2.1516800746542672e-09  0.0000000000000000e+00  0.0000000000000000e+00  -1.0598616571559438e-10  -1.6802949879266513e-10  -1.4502974776001745e-10  -3.5444362490079381e-19  2.9816943204778343e-10  7.7318091257127081e-10  1.4400954543737905e-09  2.3044457652967265e-09  3.3617338504445762e-09  4.5973356335379412e-09  5.9868191404454456e-09  7.4966666100046557e-09  9.0853750824132274e-09  1.0704895170792488e-08  1.2302354416393398e-08  1.3822000373588483e-08  1.5207289800902949e-08  1.6403044388162829e-08  1.7357590559218703e-08  1.8024801170172744e-08  1.8365960369526753e-08  1.8351379373947144e-08  1.7961700201061831e-08  1.7188836142471775e-08  1.6036511515080030e-08  1.4520378471614912e-08  1.2667704771188710e-08  1.0516642677022181e-08  8.1151045924930684e-09  5.5192841836841719e-09  2.7918701258857634e-09  0.0000000000000000e+00  0.0000000000000000e+00  -2.0699855620054382e-10  -3.5904803292983633e-10  -4.0485205185055744e-10  -2.9816943292068418e-10  -5.3744934706203007e-19  5.1951912932888472e-10  1.2795832037556755e-09  2.2876179544890523e-09  3.5386521940210284e-09  5.0151924854601673e-09  6.6876079489715200e-09  8.5150133804738605e-09  1.0446619397581873e-08  1.2423500047361196e-08  1.4380711916258753e-08  1.6249684907304902e-08  1.7960794029375584e-08  1.9446014196992125e-08  2.0641556452896143e-08  2.1490384341584739e-08  2.1944513372731001e-08  2.1967004462026405e-08  2.1533573622286462e-08  2.0633754563944146e-08  1.9271567693516378e-08  1.7465667603308678e-08  1.5248960753216650e-08  1.2667704771188826e-08  9.7801196194878762e-09  6.6545576141511862e-09  3.3672927810147523e-09  0.0000000000000000e+00  0.0000000000000000e+00  -3.5208261701476780e-10  -6.3826399032208130e-10  -7.9712024651726709e-10  -7.7318091359965442e-10  -5.1951913059528325e-10  -7.4602641130550166e-19  8.0890309103839031e-10  1.9167978962388470e-09  3.3186226892681483e-09  4.9944881912467334e-09  6.9101216052418611e-09  9.0178989191670777e-09  1.1258428705211307e-08  1.3562629097951886e-08  1.5854220301129545e-08  1.8052538602874643e-08  2.0075565104078919e-08  2.1843053679468584e-08  2.3279638433518640e-08  2.4317801251312617e-08  2.4900584968665607e-08  2.4983947010172290e-08  2.4538661711258807e-08  2.3551696434434811e-08  2.2027006351069843e-08  1.9985714603897618e-08  1.7465667603308884e-08  1.4520378471615215e-08  1.1217394117377829e-08  7.6361421218046583e-09  3.8653318468143423e-09  0.0000000000000000e+00  0.0000000000000000e+00  -5.4485833035804112e-10  -1.0129848237005051e-09  -1.3329424285370964e-09  -1.4400954555476303e-09  -1.2795832052012313e-09  -8.0890309274156139e-10  -9.7209991783568244e-19  1.1592224843848449e-09  2.6640310333894571e-09  4.4926690557495493e-09  6.6068517865586823e-09  8.9529343116194802e-09  1.1463710685791616e-08  1.4060777683163675e-08  1.6657374625302474e-08  1.9161592017656788e-08  2.1479827108237499e-08  2.3520354532921239e-08  2.5196875314579802e-08  2.6431907830758944e-08  2.7159889946799810e-08  2.7329872115885290e-08  2.6907696467279821e-08  2.5877576150938104e-08  2.4243011732152192e-08  2.2027006351070160e-08  1.9271567693516881e-08  1.6036511515080596e-08  1.2397607470970775e-08  8.4441323726294507e-09  4.2759180038228583e-09  0.0000000000000000e+00  0.0000000000000000e+00  -7.8651512872286137e-10  -1.4856770174486106e-09  -2.0162138154048831e-09  -2.3044457666045975e-09  -2.2876179560996995e-09  -1.9167978981365676e-09  -1.1592224865511660e-09  -1.2069294931955851e-18  1.5569022694812877e-09  3.4884266246337379e-09  5.7529623230170176e-09  8.2916344728849070e-09  1.1030297981119847e-08  1.3882162647927528e-08  1.6750950843919604e-08  1.9534468315333034e-08  2.2128452337839408e-08  2.4430550311553976e-08  2.6344276391128077e-08  2.7782794090228340e-08  2.8672378979193213e-08  2.8955427373035058e-08  2.8592893832415841e-08  2.7566061720967015e-08  2.5877576150938560e-08  2.3551696434435566e-08  2.0633754563945046e-08  1.7188836142472682e-08  1.3299729444961860e-08  9.0642158748922100e-09  4.5918001049893978e-09  0.0000000000000000e+00  0.0000000000000000e+00  -1.0756870459176276e-09  -2.0537156404318018e-09  -2.8432402567447946e-09  -3.3617338518737677e-09  -3.5386521957811157e-09  -3.3186226913419819e-09  -2.6640310357568567e-09  -1.5569022721192424e-09  -1.4414480303703648e-18  1.9829022693829752e-09  4.3475916407120000e-09  7.0308095762577566e-09  9.9524183396431236e-09  1.3018259508049486e-08  1.6123596981624924e-08  1.9157014033506183e-08  2.2004616058903185e-08  2.4554378474081311e-08  2.6700473160219984e-08  2.8347407179364120e-08  2.9413814200530664e-08  2.9835751908350953e-08  2.9569377133230940e-08  2.8592893832416456e-08  2.6907696467280874e-08  2.4538661711260114e-08  2.1533573622287855e-08  1.7961700201063155e-08  1.3911571408133647e-08  9.4880390640863452e-09  4.8087265560104101e-09  0.0000000000000000e+00  0.0000000000000000e+00  -1.4084317451071450e-09  -2.7093408436679584e-09  -3.8026700611188411e-09  -4.5973356350745797e-09  -5.0151924873526126e-09  -4.9944881934765559e-09  -4.4926690582950570e-09  -3.4884266274701965e-09  -1.9829022724828494e-09  -1.6666128232601002e-18  2.4142078761048865e-09  5.1929625010762193e-09  8.2511335028652032e-09  1.1488280863391617e-08  1.4792348079561717e-08  1.8043846458142505e-08  2.1120371091590489e-08  2.3901275885484420e-08  2.6272328445567736e-08  2.8130165940889311e-08  2.9386380230676835e-08  2.9971074304098620e-08  2.9835751908351734e-08  2.8955427373036437e-08  2.7329872115887064e-08  2.4983947010174262e-08  2.1967004462028387e-08  1.8351379373948958e-08  1.4230022834407313e-08  9.7133650905958792e-09  4.9255239368631793e-09  0.0000000000000000e+00  0.0000000000000000e+00  -1.7783151544739766e-09  -3.4398247074099618e-09  -4.8757391388766538e-09  -5.9868191420746348e-09  -6.6876079509779789e-09  -6.9101216076060583e-09  -6.6068517892576270e-09  -5.7529623260244916e-09  -4.3475916439988146e-09  -2.4142078796391687e-09  -1.8737554228389909e-18  2.8256744553114032e-09  5.9737279391290158e-09  9.3385762476691075e-09  1.2802044408180684e-08  1.6237796563553619e-08  1.9516120863815234e-08  2.2508886330215553e-08  2.5094481645898324e-08  2.7162546101931029e-08  2.8618310483404504e-08  2.9386380230677794e-08  2.9413814200532385e-08  2.8672378979195486e-08  2.7159889946802421e-08  2.4900584968668336e-08  2.1944513372733645e-08  1.8365960369529119e-08  1.4260963865440901e-08  9.7440153292243665e-09  4.9440676918423319e-09  0.0000000000000000e+00  0.0000000000000000e+00  -2.1765992402045502e-09  -4.2278435226744405e-09  -6.0368221446561123e-09  -7.4966666117106181e-09  -8.5150133825749042e-09  -9.0178989216427582e-09  -8.9529343144457314e-09  -8.2916344760342814e-09  -7.0308095796996940e-09  -5.1929625047773479e-09  -2.8256744592358715e-09  -2.0549141462098212e-18  3.1920690295607354e-09  6.6409751641282937e-09  1.0223674614459612e-08  1.3808268893705582e-08  1.7259011820786953e-08  2.0441500255295570e-08  2.3227849498440385e-08  2.5501654528620386e-08  2.7162546101932147e-08  2.8130165940891369e-08  2.8347407179366906e-08  2.7782794090231623e-08  2.6431907830762485e-08  2.4317801251316183e-08  2.1490384341588104e-08  1.8024801170175706e-08  1.4018857715452671e-08  9.5895963258935264e-09  4.8691453021102614e-09  0.0000000000000000e+00  0.0000000000000000e+00  -2.5925263714466815e-09  -5.0520424975761274e-09  -7.2542702855820518e-09  -9.0853750841794631e-09  -1.0446619399757176e-08  -1.1258428707774525e-08  -1.1463710688717840e-08  -1.1030297984380664e-08  -9.9524183432068972e-09  -8.2511335066973887e-09  -5.9737279431924950e-09  -3.1920690338161871e-09  -2.2031413206983635e-18  3.4901357700414087e-09  7.1517068217181987e-09  1.0848581347862307e-08  1.4440307499685795e-08  1.7787487817533389e-08  2.0757141638083694e-08  2.3227849498441653e-08  2.5094481645900690e-08  2.6272328445571005e-08  2.6700473160223928e-08  2.6344276391132445e-08  2.5196875314584338e-08  2.3279638433523094e-08  2.0641556452900276e-08  1.7357590559222293e-08  1.3526039288257800e-08  9.2650227764139155e-09  4.7082170696201935e-09  0.0000000000000000e+00  0.0000000000000000e+00  -3.0136899213427075e-09  -5.8877722995275605e-09  -8.4915051932092396e-09  -1.0704895172601929e-08  -1.2423500049589741e-08  -1.3562629100577875e-08  -1.4060777686161597e-08  -1.3882162651268283e-08  -1.3018259511700668e-08  -1.1488280867317839e-08  -9.3385762518323439e-09  -6.6409751684882626e-09  -3.4901357745559616e-09  -2.3127660546709794e-18  3.7005096316249387e-09  7.4723869965879229e-09  1.1171845594261641e-08  1.4655824797673314e-08  1.7787487817534772e-08  2.0441500255298203e-08  2.2508886330219255e-08  2.3901275885488973e-08  2.4554378474086469e-08  2.4430550311559475e-08  2.3520354532926805e-08  2.1843053679473951e-08  1.9446014196997042e-08  1.6403044388167065e-08  1.2811728134730538e-08  8.7898552247404508e-09  4.4710838060488577e-09  0.0000000000000000e+00  0.0000000000000000e+00  -3.4264773407179585e-09  -6.7079700616987616e-09  -9.7083281653104493e-09  -1.2302354418228581e-08  -1.4380711918519033e-08  -1.5854220303792961e-08  -1.6657374628343160e-08  -1.6750950847308054e-08  -1.6123596985328278e-08  -1.4792348083544083e-08  -1.2802044412403504e-08  -1.0223674618882027e-08  -7.1517068262974590e-09  -3.7005096363168155e-09  -2.3796119182024076e-18  3.8093152919197697e-09  7.5817144489555873e-09  1.1171845594263108e-08  1.4440307499688632e-08  1.7259011820791009e-08  1.9516120863820312e-08  2.1120371091596355e-08  2.2004616058909574e-08  2.2128452337846046e-08  2.1479827108244096e-08  2.0075565104085196e-08  1.7960794029381278e-08  1.5207289800907816e-08  1.1910804421377889e-08  8.1874783453211904e-09  4.1694743691922576e-09  0.0000000000000000e+00  0.0000000000000000e+00  -3.8165690639872067e-09  -7.4841517522282035e-09  -1.0862395552603701e-08  -1.3822000375431716e-08  -1.6249684909575126e-08  -1.8052538605549811e-08  -1.9161592020710930e-08  -1.9534468318736518e-08  -1.9157014037226011e-08  -1.8043846462142628e-08  -1.6237796567795312e-08  -1.3808268898147809e-08  -1.0848581352462128e-08  -7.4723870013009168e-09  -3.8093152967004617e-09  -2.4011521946470468e-18  3.8093152919212810e-09  7.4723869965908876e-09  1.0848581347866612e-08  1.3808268893711062e-08  1.6237796563560061e-08  1.8043846458149662e-08  1.9157014033513780e-08  1.9534468315340776e-08  1.9161592017664385e-08  1.8052538602881796e-08  1.6249684907311341e-08  1.3822000373593958e-08  1.0862395551209668e-08  7.4841517512913238e-09  3.8165690635165004e-09  0.0000000000000000e+00  0.0000000000000000e+00  -4.1694743696606147e-09  -8.1874783462534064e-09  -1.1910804422765002e-08  -1.5207289802736477e-08  -1.7960794031633890e-08  -2.0075565106740072e-08  -2.1479827111275680e-08  -2.2128452341225145e-08  -2.2004616062603657e-08  -2.1120371095569846e-08  -1.9516120868034950e-08  -1.7259011825206208e-08  -1.4440307504261880e-08  -1.1171845598950362e-08  -7.5817144537117055e-09  -3.8093152966989505e-09  -2.3766037998320462e-18  3.7005096316293716e-09  7.1517068217239302e-09  1.0223674614466461e-08  1.2802044408188428e-08  1.4792348079570096e-08  1.6123596981633652e-08  1.6750950843928379e-08  1.6657374625310991e-08  1.5854220301137506e-08  1.4380711916265872e-08  1.2302354416399427e-08  9.7083281639229249e-09  6.7079700607662420e-09  3.4264773402494360e-09  0.0000000000000000e+00  0.0000000000000000e+00  -4.4710838065103558e-09  -8.7898552256590282e-09  -1.2811728136097376e-08  -1.6403044389969021e-08  -1.9446014199216788e-08  -2.1843053682090128e-08  -2.3520354535914234e-08  -2.4430550314889396e-08  -2.4554378477726828e-08  -2.3901275889404727e-08  -2.2508886334372698e-08  -2.0441500259649342e-08  -1.7787487822041712e-08  -1.4655824802292653e-08  -1.1171845598948894e-08  -7.4723870012979522e-09  -3.7005096363123830e-09  -2.3069498937996779e-18  3.4901357700484687e-09  6.6409751641364067e-09  9.3385762476780410e-09  1.1488280863401105e-08  1.3018259508059232e-08  1.3882162647937225e-08  1.4060777683173008e-08  1.3562629097960553e-08  1.2423500047368910e-08  1.0704895170798994e-08  8.4915051918415858e-09  5.8877722986083825e-09  3.0136899208808814e-09  0.0000000000000000e+00  0.0000000000000000e+00  -4.7082170700703882e-09  -9.2650227773100119e-09  -1.3526039289591203e-08  -1.7357590560980197e-08  -2.0641556455065782e-08  -2.3279638436075379e-08  -2.5196875317498846e-08  -2.6344276394381124e-08  -2.6700473163775517e-08  -2.6272328449391312e-08  -2.5094481649952942e-08  -2.3227849502686829e-08  -2.0757141642480923e-08  -1.7787487822040329e-08  -1.4440307504259043e-08  -1.0848581352457825e-08  -7.1517068262917291e-09  -3.4901357745489020e-09  -2.1949017442525548e-18  3.1920690295699568e-09  5.9737279391389792e-09  8.2511335028756339e-09  9.9524183396537247e-09  1.1030297981130309e-08  1.1463710685801623e-08  1.1258428705220552e-08  1.0446619397590069e-08  9.0853750824201195e-09  7.2542702842474471e-09  5.0520424966791476e-09  2.5925263709960012e-09  0.0000000000000000e+00  0.0000000000000000e+00  -4.8691453025448216e-09  -9.5895963267585141e-09  -1.4018857716739807e-08  -1.8024801171872637e-08  -2.1490384343678532e-08  -2.4317801253780010e-08  -2.6431907833576017e-08  -2.7782794093367792e-08  -2.8347407182795530e-08  -2.8130165944579453e-08  -2.7162546105844189e-08  -2.5501654532718725e-08  -2.3227849502685562e-08  -2.0441500259646708e-08  -1.7259011825202155e-08  -1.3808268898142333e-08  -1.0223674618875178e-08  -6.6409751684801505e-09  -3.1920690338069657e-09  -2.0447886541031030e-18  2.8256744553221901e-09  5.1929625010873928e-09  7.0308095762690178e-09  8.2916344728959449e-09  8.9529343116299821e-09  9.0178989191767408e-09  8.5150133804824019e-09  7.4966666100118191e-09  6.0368221433674153e-09  4.2278435218083005e-09  2.1765992397693589e-09  0.0000000000000000e+00  0.0000000000000000e+00  -4.9440676922570745e-09  -9.7440153300499225e-09  -1.4260963866669382e-08  -1.8365960371148749e-08  -2.1944513374728874e-08  -2.4900584971019998e-08  -2.7159889949487903e-08  -2.8672378982188960e-08  -2.9413814203805046e-08  -2.9386380234198153e-08  -2.8618310487138678e-08  -2.7162546105843071e-08  -2.5094481649950573e-08  -2.2508886334368999e-08  -1.9516120868029878e-08  -1.6237796567788873e-08  -1.2802044412395760e-08  -9.3385762518234103e-09  -5.9737279431825316e-09  -2.8256744592250846e-09  -1.8623870979571546e-18  2.4142078761165625e-09  4.3475916407236897e-09  5.7529623230284145e-09  6.6068517865694803e-09  6.9101216052517641e-09  6.6876079489802476e-09  5.9868191404527512e-09  4.8757391376462855e-09  3.4398247065830115e-09  1.7783151540584682e-09  0.0000000000000000e+00  0.0000000000000000e+00  -4.9255239372541156e-09  -9.7133650913740642e-09  -1.4230022835565323e-08  -1.8351379375475701e-08  -2.1967004463909217e-08  -2.4983947012391123e-08  -2.7329872118418647e-08  -2.8955427375858400e-08  -2.9835751911436932e-08  -2.9971074307417361e-08  -2.9386380234197196e-08  -2.8130165944577401e-08  -2.6272328449388050e-08  -2.3901275889400177e-08  -2.1120371095563987e-08  -1.8043846462135475e-08  -1.4792348083535706e-08  -1.1488280867308352e-08  -8.2511335066869563e-09  -5.1929625047661752e-09  -2.4142078796274926e-09  -1.6547003531953378e-18  1.9829022693948382e-09  3.4884266246452544e-09  4.4926690557604226e-09  4.9944881912566761e-09  5.0151924854689115e-09  4.5973356335452477e-09  3.8026700599586624e-09  2.7093408428881699e-09  1.4084317447153261e-09  0.0000000000000000e+00  0.0000000000000000e+00  -4.8087265563737814e-09  -9.4880390648096750e-09  -1.3911571409210049e-08  -1.7961700202482332e-08  -2.1533573624036204e-08  -2.4538661713320852e-08  -2.6907696469634206e-08  -2.8592893835039760e-08  -2.9569377136098987e-08  -2.9835751911436151e-08  -2.9413814203803328e-08  -2.8347407182792750e-08  -2.6700473163771583e-08  -2.4554378477721676e-08  -2.2004616062597271e-08  -1.9157014037218415e-08  -1.6123596985319549e-08  -1.3018259511690924e-08  -9.9524183431962961e-09  -7.0308095796884327e-09  -4.3475916439871240e-09  -1.9829022724709868e-09  -1.4296862248542247e-18  1.5569022694926660e-09  2.6640310334001687e-09  3.3186226892779202e-09  3.5386521940296066e-09  3.3617338504517346e-09  2.8432402556659952e-09  2.0537156397066961e-09  1.0756870455532771e-09  0.0000000000000000e+00  0.0000000000000000e+00  -4.5918001053217110e-09  -9.0642158755537311e-09  -1.3299729445946308e-08  -1.7188836143770648e-08  -2.0633754565544099e-08  -2.3551696436320370e-08  -2.5877576153091010e-08  -2.7566061723366431e-08  -2.8592893835039148e-08  -2.8955427375857024e-08  -2.8672378982186687e-08  -2.7782794093364516e-08  -2.6344276394376766e-08  -2.4430550314883904e-08  -2.2128452341218511e-08  -1.9534468318728775e-08  -1.6750950847299279e-08  -1.3882162651258586e-08  -1.1030297984370202e-08  -8.2916344760232435e-09  -5.7529623260130939e-09  -3.4884266274586805e-09  -1.5569022721078643e-09  -1.1959547562822313e-18  1.1592224