<?xml version="1.0"?>
<VTKFile type="UnstructuredGrid"  version="0.1"  >
<UnstructuredGrid>
<Piece  NumberOfPoints="1089" NumberOfCells="2048">
<Points>
<DataArray  type="Float64"  NumberOfComponents="3"  format="ascii">0 0 0  0.03125 0 0  0.0625 0 0  0.09375 0 0  0.125 0 0  0.15625 0 0  0.1875 0 0  0.21875 0 0  0.25 0 0  0.28125 0 0  0.3125 0 0  0.34375 0 0  0.375 0 0  0.40625 0 0  0.4375 0 0  0.46875 0 0  0.5 0 0  0.53125 0 0  0.5625 0 0  0.59375 0 0  0.625 0 0  0.65625 0 0  0.6875 0 0  0.71875 0 0  0.75 0 0  0.78125 0 0  0.8125 0 0  0.84375 0 0  0.875 0 0  0.90625 0 0  0.9375 0 0  0.96875 0 0  1 0 0  0 0.03125 0  0.03125 0.03125 0  0.0625 0.03125 0  0.09375 0.03125 0  0.125 0.03125 0  0.15625 0.03125 0  0.1875 0.03125 0  0.21875 0.03125 0  0.25 0.03125 0  0.28125 0.03125 0  0.3125 0.03125 0  0.34375 0.03125 0  0.375 0.03125 0  0.40625 0.03125 0  0.4375 0.03125 0  0.46875 0.03125 0  0.5 0.03125 0  0.53125 0.03125 0  0.5625 0.03125 0  0.59375 0.03125 0  0.625 0.03125 0  0.65625 0.03125 0  0.6875 0.03125 0  0.71875 0.03125 0  0.75 0.03125 0  0.78125 0.03125 0  0.8125 0.03125 0  0.84375 0.03125 0  0.875 0.03125 0  0.90625 0.03125 0  0.9375 0.03125 0  0.96875 0.03125 0  1 0.03125 0  0 0.0625 0  0.03125 0.0625 0  0.0625 0.0625 0  0.09375 0.0625 0  0.125 0.0625 0  0.15625 0.0625 0  0.1875 0.0625 0  0.21875 0.0625 0  0.25 0.0625 0  0.28125 0.0625 0  0.3125 0.0625 0  0.34375 0.0625 0  0.375 0.0625 0  0.40625 0.0625 0  0.4375 0.0625 0  0.46875 0.0625 0  0.5 0.0625 0  0.53125 0.0625 0  0.5625 0.0625 0  0.59375 0.0625 0  0.625 0.0625 0  0.65625 0.0625 0  0.6875 0.0625 0  0.71875 0.0625 0  0.75 0.0625 0  0.78125 0.0625 0  0.8125 0.0625 0  0.84375 0.0625 0  0.875 0.0625 0  0.90625 0.0625 0  0.9375 0.0625 0  0.96875 0.0625 0  1 0.0625 0  0 0.09375 0  0.03125 0.09375 0  0.0625 0.09375 0  0.09375 0.09375 0  0.125 0.09375 0  0.15625 0.09375 0  0.1875 0.09375 0  0.21875 0.09375 0  0.25 0.09375 0  0.28125 0.09375 0  0.3125 0.09375 0  0.34375 0.09375 0  0.375 0.09375 0  0.40625 0.09375 0  0.4375 0.09375 0  0.46875 0.09375 0  0.5 0.09375 0  0.53125 0.09375 0  0.5625 0.09375 0  0.59375 0.09375 0  0.625 0.09375 0  0.65625 0.09375 0  0.6875 0.09375 0  0.71875 0.09375 0  0.75 0.09375 0  0.78125 0.09375 0  0.8125 0.09375 0  0.84375 0.09375 0  0.875 0.09375 0  0.90625 0.09375 0  0.9375 0.09375 0  0.96875 0.09375 0  1 0.09375 0  0 0.125 0  0.03125 0.125 0  0.0625 0.125 0  0.09375 0.125 0  0.125 0.125 0  0.15625 0.125 0  0.1875 0.125 0  0.21875 0.125 0  0.25 0.125 0  0.28125 0.125 0  0.3125 0.125 0  0.34375 0.125 0  0.375 0.125 0  0.40625 0.125 0  0.4375 0.125 0  0.46875 0.125 0  0.5 0.125 0  0.53125 0.125 0  0.5625 0.125 0  0.59375 0.125 0  0.625 0.125 0  0.65625 0.125 0  0.6875 0.125 0  0.71875 0.125 0  0.75 0.125 0  0.78125 0.125 0  0.8125 0.125 0  0.84375 0.125 0  0.875 0.125 0  0.90625 0.125 0  0.9375 0.125 0  0.96875 0.125 0  1 0.125 0  0 0.15625 0  0.03125 0.15625 0  0.0625 0.15625 0  0.09375 0.15625 0  0.125 0.15625 0  0.15625 0.15625 0  0.1875 0.15625 0  0.21875 0.15625 0  0.25 0.15625 0  0.28125 0.15625 0  0.3125 0.15625 0  0.34375 0.15625 0  0.375 0.15625 0  0.40625 0.15625 0  0.4375 0.15625 0  0.46875 0.15625 0  0.5 0.15625 0  0.53125 0.15625 0  0.5625 0.15625 0  0.59375 0.15625 0  0.625 0.15625 0  0.65625 0.15625 0  0.6875 0.15625 0  0.71875 0.15625 0  0.75 0.15625 0  0.78125 0.15625 0  0.8125 0.15625 0  0.84375 0.15625 0  0.875 0.15625 0  0.90625 0.15625 0  0.9375 0.15625 0  0.96875 0.15625 0  1 0.15625 0  0 0.1875 0  0.03125 0.1875 0  0.0625 0.1875 0  0.09375 0.1875 0  0.125 0.1875 0  0.15625 0.1875 0  0.1875 0.1875 0  0.21875 0.1875 0  0.25 0.1875 0  0.28125 0.1875 0  0.3125 0.1875 0  0.34375 0.1875 0  0.375 0.1875 0  0.40625 0.1875 0  0.4375 0.1875 0  0.46875 0.1875 0  0.5 0.1875 0  0.53125 0.1875 0  0.5625 0.1875 0  0.59375 0.1875 0  0.625 0.1875 0  0.65625 0.1875 0  0.6875 0.1875 0  0.71875 0.1875 0  0.75 0.1875 0  0.78125 0.1875 0  0.8125 0.1875 0  0.84375 0.1875 0  0.875 0.1875 0  0.90625 0.1875 0  0.9375 0.1875 0  0.96875 0.1875 0  1 0.1875 0  0 0.21875 0  0.03125 0.21875 0  0.0625 0.21875 0  0.09375 0.21875 0  0.125 0.21875 0  0.15625 0.21875 0  0.1875 0.21875 0  0.21875 0.21875 0  0.25 0.21875 0  0.28125 0.21875 0  0.3125 0.21875 0  0.34375 0.21875 0  0.375 0.21875 0  0.40625 0.21875 0  0.4375 0.21875 0  0.46875 0.21875 0  0.5 0.21875 0  0.53125 0.21875 0  0.5625 0.21875 0  0.59375 0.21875 0  0.625 0.21875 0  0.65625 0.21875 0  0.6875 0.21875 0  0.71875 0.21875 0  0.75 0.21875 0  0.78125 0.21875 0  0.8125 0.21875 0  0.84375 0.21875 0  0.875 0.21875 0  0.90625 0.21875 0  0.9375 0.21875 0  0.96875 0.21875 0  1 0.21875 0  0 0.25 0  0.03125 0.25 0  0.0625 0.25 0  0.09375 0.25 0  0.125 0.25 0  0.15625 0.25 0  0.1875 0.25 0  0.21875 0.25 0  0.25 0.25 0  0.28125 0.25 0  0.3125 0.25 0  0.34375 0.25 0  0.375 0.25 0  0.40625 0.25 0  0.4375 0.25 0  0.46875 0.25 0  0.5 0.25 0  0.53125 0.25 0  0.5625 0.25 0  0.59375 0.25 0  0.625 0.25 0  0.65625 0.25 0  0.6875 0.25 0  0.71875 0.25 0  0.75 0.25 0  0.78125 0.25 0  0.8125 0.25 0  0.84375 0.25 0  0.875 0.25 0  0.90625 0.25 0  0.9375 0.25 0  0.96875 0.25 0  1 0.25 0  0 0.28125 0  0.03125 0.28125 0  0.0625 0.28125 0  0.09375 0.28125 0  0.125 0.28125 0  0.15625 0.28125 0  0.1875 0.28125 0  0.21875 0.28125 0  0.25 0.28125 0  0.28125 0.28125 0  0.3125 0.28125 0  0.34375 0.28125 0  0.375 0.28125 0  0.40625 0.28125 0  0.4375 0.28125 0  0.46875 0.28125 0  0.5 0.28125 0  0.53125 0.28125 0  0.5625 0.28125 0  0.59375 0.28125 0  0.625 0.28125 0  0.65625 0.28125 0  0.6875 0.28125 0  0.71875 0.28125 0  0.75 0.28125 0  0.78125 0.28125 0  0.8125 0.28125 0  0.84375 0.28125 0  0.875 0.28125 0  0.90625 0.28125 0  0.9375 0.28125 0  0.96875 0.28125 0  1 0.28125 0  0 0.3125 0  0.03125 0.3125 0  0.0625 0.3125 0  0.09375 0.3125 0  0.125 0.3125 0  0.15625 0.3125 0  0.1875 0.3125 0  0.21875 0.3125 0  0.25 0.3125 0  0.28125 0.3125 0  0.3125 0.3125 0  0.34375 0.3125 0  0.375 0.3125 0  0.40625 0.3125 0  0.4375 0.3125 0  0.46875 0.3125 0  0.5 0.3125 0  0.53125 0.3125 0  0.5625 0.3125 0  0.59375 0.3125 0  0.625 0.3125 0  0.65625 0.3125 0  0.6875 0.3125 0  0.71875 0.3125 0  0.75 0.3125 0  0.78125 0.3125 0  0.8125 0.3125 0  0.84375 0.3125 0  0.875 0.3125 0  0.90625 0.3125 0  0.9375 0.3125 0  0.96875 0.3125 0  1 0.3125 0  0 0.34375 0  0.03125 0.34375 0  0.0625 0.34375 0  0.09375 0.34375 0  0.125 0.34375 0  0.15625 0.34375 0  0.1875 0.34375 0  0.21875 0.34375 0  0.25 0.34375 0  0.28125 0.34375 0  0.3125 0.34375 0  0.34375 0.34375 0  0.375 0.34375 0  0.40625 0.34375 0  0.4375 0.34375 0  0.46875 0.34375 0  0.5 0.34375 0  0.53125 0.34375 0  0.5625 0.34375 0  0.59375 0.34375 0  0.625 0.34375 0  0.65625 0.34375 0  0.6875 0.34375 0  0.71875 0.34375 0  0.75 0.34375 0  0.78125 0.34375 0  0.8125 0.34375 0  0.84375 0.34375 0  0.875 0.34375 0  0.90625 0.34375 0  0.9375 0.34375 0  0.96875 0.34375 0  1 0.34375 0  0 0.375 0  0.03125 0.375 0  0.0625 0.375 0  0.09375 0.375 0  0.125 0.375 0  0.15625 0.375 0  0.1875 0.375 0  0.21875 0.375 0  0.25 0.375 0  0.28125 0.375 0  0.3125 0.375 0  0.34375 0.375 0  0.375 0.375 0  0.40625 0.375 0  0.4375 0.375 0  0.46875 0.375 0  0.5 0.375 0  0.53125 0.375 0  0.5625 0.375 0  0.59375 0.375 0  0.625 0.375 0  0.65625 0.375 0  0.6875 0.375 0  0.71875 0.375 0  0.75 0.375 0  0.78125 0.375 0  0.8125 0.375 0  0.84375 0.375 0  0.875 0.375 0  0.90625 0.375 0  0.9375 0.375 0  0.96875 0.375 0  1 0.375 0  0 0.40625 0  0.03125 0.40625 0  0.0625 0.40625 0  0.09375 0.40625 0  0.125 0.40625 0  0.15625 0.40625 0  0.1875 0.40625 0  0.21875 0.40625 0  0.25 0.40625 0  0.28125 0.40625 0  0.3125 0.40625 0  0.34375 0.40625 0  0.375 0.40625 0  0.40625 0.40625 0  0.4375 0.40625 0  0.46875 0.40625 0  0.5 0.40625 0  0.53125 0.40625 0  0.5625 0.40625 0  0.59375 0.40625 0  0.625 0.40625 0  0.65625 0.40625 0  0.6875 0.40625 0  0.71875 0.40625 0  0.75 0.40625 0  0.78125 0.40625 0  0.8125 0.40625 0  0.84375 0.40625 0  0.875 0.40625 0  0.90625 0.40625 0  0.9375 0.40625 0  0.96875 0.40625 0  1 0.40625 0  0 0.4375 0  0.03125 0.4375 0  0.0625 0.4375 0  0.09375 0.4375 0  0.125 0.4375 0  0.15625 0.4375 0  0.1875 0.4375 0  0.21875 0.4375 0  0.25 0.4375 0  0.28125 0.4375 0  0.3125 0.4375 0  0.34375 0.4375 0  0.375 0.4375 0  0.40625 0.4375 0  0.4375 0.4375 0  0.46875 0.4375 0  0.5 0.4375 0  0.53125 0.4375 0  0.5625 0.4375 0  0.59375 0.4375 0  0.625 0.4375 0  0.65625 0.4375 0  0.6875 0.4375 0  0.71875 0.4375 0  0.75 0.4375 0  0.78125 0.4375 0  0.8125 0.4375 0  0.84375 0.4375 0  0.875 0.4375 0  0.90625 0.4375 0  0.9375 0.4375 0  0.96875 0.4375 0  1 0.4375 0  0 0.46875 0  0.03125 0.46875 0  0.0625 0.46875 0  0.09375 0.46875 0  0.125 0.46875 0  0.15625 0.46875 0  0.1875 0.46875 0  0.21875 0.46875 0  0.25 0.46875 0  0.28125 0.46875 0  0.3125 0.46875 0  0.34375 0.46875 0  0.375 0.46875 0  0.40625 0.46875 0  0.4375 0.46875 0  0.46875 0.46875 0  0.5 0.46875 0  0.53125 0.46875 0  0.5625 0.46875 0  0.59375 0.46875 0  0.625 0.46875 0  0.65625 0.46875 0  0.6875 0.46875 0  0.71875 0.46875 0  0.75 0.46875 0  0.78125 0.46875 0  0.8125 0.46875 0  0.84375 0.46875 0  0.875 0.46875 0  0.90625 0.46875 0  0.9375 0.46875 0  0.96875 0.46875 0  1 0.46875 0  0 0.5 0  0.03125 0.5 0  0.0625 0.5 0  0.09375 0.5 0  0.125 0.5 0  0.15625 0.5 0  0.1875 0.5 0  0.21875 0.5 0  0.25 0.5 0  0.28125 0.5 0  0.3125 0.5 0  0.34375 0.5 0  0.375 0.5 0  0.40625 0.5 0  0.4375 0.5 0  0.46875 0.5 0  0.5 0.5 0  0.53125 0.5 0  0.5625 0.5 0  0.59375 0.5 0  0.625 0.5 0  0.65625 0.5 0  0.6875 0.5 0  0.71875 0.5 0  0.75 0.5 0  0.78125 0.5 0  0.8125 0.5 0  0.84375 0.5 0  0.875 0.5 0  0.90625 0.5 0  0.9375 0.5 0  0.96875 0.5 0  1 0.5 0  0 0.53125 0  0.03125 0.53125 0  0.0625 0.53125 0  0.09375 0.53125 0  0.125 0.53125 0  0.15625 0.53125 0  0.1875 0.53125 0  0.21875 0.53125 0  0.25 0.53125 0  0.28125 0.53125 0  0.3125 0.53125 0  0.34375 0.53125 0  0.375 0.53125 0  0.40625 0.53125 0  0.4375 0.53125 0  0.46875 0.53125 0  0.5 0.53125 0  0.53125 0.53125 0  0.5625 0.53125 0  0.59375 0.53125 0  0.625 0.53125 0  0.65625 0.53125 0  0.6875 0.53125 0  0.71875 0.53125 0  0.75 0.53125 0  0.78125 0.531
[...]
<PointData  Scalars="phi"> 
<DataArray  type="Float64"  Name="phi"  format="ascii">0.0000000000000000e+00  0.0000000000000000e+00  0.0000000000000000e+00  0.0000000000000000e+00  0.0000000000000000e+00  0.0000000000000000e+00  0.0000000000000000e+00  0.0000000000000000e+00  0.0000000000000000e+00  0.0000000000000000e+00  0.0000000000000000e+00  0.0000000000000000e+00  0.0000000000000000e+00  0.0000000000000000e+00  0.0000000000000000e+00  0.0000000000000000e+00  0.0000000000000000e+00  0.0000000000000000e+00  0.0000000000000000e+00  0.0000000000000000e+00  0.0000000000000000e+00  0.0000000000000000e+00  0.0000000000000000e+00  0.0000000000000000e+00  0.0000000000000000e+00  0.0000000000000000e+00  0.0000000000000000e+00  0.0000000000000000e+00  0.0000000000000000e+00  0.0000000000000000e+00  0.0000000000000000e+00  0.0000000000000000e+00  0.0000000000000000e+00  0.0000000000000000e+00  -7.2835890918624967e-21  6.6504005833524669e-13  2.6204195660912188e-12  6.4262608941006850e-12  1.2550946818938887e-11  2.1347831055691613e-11  3.3036404044652762e-11  4.7688784665757946e-11  6.5222150268520013e-11  8.5397465078863504e-11  1.0782461191457018e-10  1.3197377742783158e-10  1.5719269401039246e-10  1.8272911045208420e-10  2.0775765683506081e-10  2.3141009470382513e-10  2.5280780790409431e-10  2.7109529784764087e-10  2.8547340291710976e-10  2.9523096708494718e-10  2.9977373757563635e-10  2.9864937377819334e-10  2.9156759626857442e-10  2.7841469120200172e-10  2.5926180657396275e-10  2.3436672937170861e-10  2.0416911851352280e-10  1.6927950721179209e-10  1.3046285331777143e-10  8.8618256744763737e-11  4.4758548780728086e-11  0.0000000000000000e+00  0.0000000000000000e+00  -6.6504008730587884e-13  -2.8814963804769536e-20  3.2442112117673957e-12  1.0188135294863075e-11  2.1770165199489660e-11  3.8699870918904928e-11  6.1420325354812642e-11  9.0081078895513489e-11  1.2452297404849809e-10  1.6427550776299080e-10  2.0856694787184587e-10  2.5634690564359828e-10  3.0632057563091667e-10  3.5699339444590361e-10  4.0672445883924721e-10  4.5378669603890080e-10  4.9643150897633950e-10  5.3295543620955769e-10  5.6176627818366625e-10  5.8144615154843931e-10  5.9080904152069061e-10  5.8895062510412819e-10  5.7528842844191300e-10  5.4959075005269905e-10  5.1199321687594477e-10  4.6300233072560696e-10  4.0348590114812716e-10  3.3465084858794463e-10  2.5800952039083974e-10  1.7533643641802324e-10  8.8618256744763982e-11  0.0000000000000000e+00  0.0000000000000000e+00  -2.6204196091719846e-12  -3.2442112974781270e-12  -6.3743227988935482e-20  8.7935909795639970e-12  2.4547400991130996e-11  4.8331804864299487e-11  8.0820320013747847e-11  1.2224912522606608e-10  1.7239423302097533e-10  2.3056735610508586e-10  2.9563077112233583e-10  3.6603073608628956e-10  4.3984828921842043e-10  5.1486557370360877e-10  5.8864522096899839e-10  6.5861980783168057e-10  7.2218800009084289e-10  7.7681372241419388e-10  8.2012456233185214e-10  8.5000563013460929e-10  8.6468525631394941e-10  8.6280920827964159e-10  8.4350053772616203e-10  8.0640271392760317e-10  7.5170433746271839e-10  6.8014444180834267e-10  5.9299815356726721e-10  4.9204327008225554e-10  3.7950909004887737e-10  2.5800952039084098e-10  1.3046285331777244e-10  0.0000000000000000e+00  0.0000000000000000e+00  -6.4262609508666194e-12  -1.0188135407811170e-11  -8.7935911475748581e-12  -1.1071421754432195e-19  1.8078911964668052e-11  4.6880290851714282e-11  8.7317331208974470e-11  1.3972549780211546e-10  2.0383206363286404e-10  2.7875032684393328e-10  3.6299890314634224e-10  4.5454550957668903e-10  5.5087369649116170e-10  6.4907008462540111e-10  7.4592885731903227e-10  8.3806957561991847e-10  9.2206385223829201e-10  9.9456605978636348e-10  1.0524430734720410e-09  1.0928980654210932e-09  1.1135835767731587e-09  1.1126994870402639e-09  1.0890720633589297e-09  1.0422109842057389e-09  9.7234206614854480e-10  8.8041434642084388e-10  7.6808115150893093e-10  6.3765576821561314e-10  4.9204327008225895e-10  3.3465084858794855e-10  1.6927950721179454e-10  0.0000000000000000e+00  0.0000000000000000e+00  -1.2550946888835529e-11  -2.1770165338572881e-11  -2.4547401198028474e-11  -1.8078912237358019e-11  -1.6791509356856369e-19  3.1500011748793851e-11  7.7584989244565716e-11  1.3870517683464151e-10  2.1455915642533478e-10  3.0408624817023763e-10  4.0548984244541687e-10  5.1629094599989857e-10  6.3341004537677217e-10  7.5327428230325636e-10  8.7194594171793748e-10  9.8526741180416476e-10  1.0890171193306562e-09  1.1790704981713989e-09  1.2515598314323660e-09  1.3030268267694401e-09  1.3305620397917864e-09  1.3319257423932188e-09  1.3056455231794691e-09  1.2510867794430173e-09  1.1684932805581063e-09  1.0589961107264325e-09  9.2459048787153123e-10  7.6808115150893797e-10  5.9299815356727683e-10  4.0348590114813559e-10  2.0416911851352766e-10  0.0000000000000000e+00  0.0000000000000000e+00  -2.1347831138039469e-11  -3.8699871082771701e-11  -4.8331805108074117e-11  -4.6880291173018943e-11  -3.1500012144506606e-11  -2.3314235090199840e-19  4.9046234200836815e-11  1.1622123811115513e-10  2.0121810380731706e-10  3.0283088431629928e-10  4.1898151657850485e-10  5.4678241308643362e-10  6.8263249242149853e-10  8.2234311270209215e-10  9.6128919978784456e-10  1.0945798695110903e-09  1.2172420686140175e-09  1.3244102324638284e-09  1.4115146994782720e-09  1.4744616426857024e-09  1.5097975774137471e-09  1.5148520694637629e-09  1.4878530786350778e-09  1.4280103968043230e-09  1.3355638379419457e-09  1.2117941619082965e-09  1.0589961107264449e-09  8.8041434642086218e-10  6.8014444180836149e-10  4.6300233072562201e-10  2.3436672937171688e-10  0.0000000000000000e+00  0.0000000000000000e+00  -3.3036404138653399e-11  -6.1420325541874484e-11  -8.0820320292037216e-11  -8.7317331575781146e-11  -7.7584989696329037e-11  -4.9046234733179858e-11  -3.0388587024087634e-19  7.0287155677580362e-11  1.6152823713944251e-10  2.7240407638513163e-10  4.0059335263498145e-10  5.4284341292485424e-10  6.9507935807850554e-10  8.5254736401060779e-10  1.0099868690796704e-09  1.1618251233918484e-09  1.3023867097471955e-09  1.4261100426350541e-09  1.5277625547566052e-09  1.6026463016238779e-09  1.6467860532482924e-09  1.6570925849200405e-09  1.6314948019011510e-09  1.5690354998531101e-09  1.4699269286085669e-09  1.3355638379419649e-09  1.1684932805581367e-09  9.7234206614857913e-10  7.5170433746274992e-10  5.1199321687596866e-10  2.5926180657397557e-10  0.0000000000000000e+00  0.0000000000000000e+00  -4.7688784770501455e-11  -9.0081079103959849e-11  -1.2224912553617718e-10  -1.3972549821087537e-10  -1.3870517733808573e-10  -1.1622123870440878e-10  -7.0287156354905328e-11  -3.7742509921394273e-19  9.4399680564661508e-11  2.1151382851517099e-10  3.4881945871715791e-10  5.0274680889181869e-10  6.6880023838956004e-10  8.4171739559976513e-10  1.0156606774372531e-09  1.1844337380338379e-09  1.3417148139115026e-09  1.4812979581989812e-09  1.5973329430491897e-09  1.6845546103587923e-09  1.7384928255721277e-09  1.7556549035102987e-09  1.7336734014078977e-09  1.6714134731440912e-09  1.5690354998531376e-09  1.4280103968043685e-09  1.2510867794430717e-09  1.0422109842057935e-09  8.0640271392765094e-10  5.4959075005273420e-10  2.7841469120202028e-10  0.0000000000000000e+00  0.0000000000000000e+00  -6.5222150382993615e-11  -1.2452297427631368e-10  -1.7239423335991023e-10  -2.0383206407962617e-10  -2.1455915697559451e-10  -2.0121810445574911e-10  -1.6152823787977740e-10  -9.4399681389746148e-11  -4.5093343189185021e-19  1.2022934550270171e-10  2.6360759500067304e-10  4.2629919217264590e-10  6.0344514433178138e-10  7.8933634227972695e-10  9.7762232035265561e-10  1.1615475463193062e-09  1.3342062467353062e-09  1.4888060331736342e-09  1.6189302275662139e-09  1.7187888050362282e-09  1.7834482794995628e-09  1.8090316354972189e-09  1.7928805294062944e-09  1.7336734014079347e-09  1.6314948019012145e-09  1.4878530786351568e-09  1.3056455231795535e-09  1.0890720633590096e-09  8.4350053772622955e-10  5.7528842844196170e-10  2.9156759626859986e-10  0.0000000000000000e+00  0.0000000000000000e+00  -8.5397465201961291e-11  -1.6427550800797479e-10  -2.3056735646957054e-10  -2.7875032732438243e-10  -3.0408624876199861e-10  -3.0283088501364811e-10  -2.7240407718132839e-10  -2.1151382940252491e-10  -1.2022934647264571e-10  -5.2158667816299247e-19  1.4638070538968231e-10  3.1486498022049827e-10  5.0029111282434101e-10  6.9656912193411765e-10  8.9690468375591814e-10  1.0940528383889055e-09  1.2805918070619724e-09  1.4492064531489158e-09  1.5929705220109980e-09  1.7056168134200035e-09  1.7817848751231034e-09  1.8172366405133939e-09  1.8090316354972665e-09  1.7556549035103818e-09  1.6570925849201477e-09  1.5148520694638820e-09  1.3319257423933383e-09  1.1126994870403733e-09  8.6280920827973196e-10  5.8895062510419251e-10  2.9864937377822674e-10  0.0000000000000000e+00  0.0000000000000000e+00  -1.0782461204510366e-10  -2.0856694813163306e-10  -2.9563077150885153e-10  -3.6299890365584047e-10  -4.0548984307296711e-10  -4.1898151731803993e-10  -4.0059335347935631e-10  -3.4881945965821860e-10  -2.6360759602933572e-10  -1.4638070649602110e-10  -5.8667146564238092e-19  1.7132916520072568e-10  3.6220514381384696e-10  5.6622604660290178e-10  7.7622656850268609e-10  9.8454658541245403e-10  1.1833212766006824e-09  1.3647816743266293e-09  1.5215541176162739e-09  1.6469471037907194e-09  1.7352144894844268e-09  1.7817848751231611e-09  1.7834482794996666e-09  1.7384928255722648e-09  1.6467860532484498e-09  1.5097975774139117e-09  1.3305620397919457e-09  1.1135835767733012e-09  8.6468525631406532e-10  5.9080904152077240e-10  2.9977373757567859e-10  0.0000000000000000e+00  0.0000000000000000e+00  -1.3197377756454117e-10  -2.5634690591568187e-10  -3.6603073649110678e-10  -4.5454551011032041e-10  -5.1629094665718352e-10  -5.4678241386102043e-10  -5.4284341380926180e-10  -5.0274680987750872e-10  -4.2629919325010572e-10  -3.1486498137933276e-10  -1.7132916642975775e-10  -6.4368935924672330e-19  1.9354477340173383e-10  4.0266235573741019e-10  6.1989223039234192e-10  8.3723699424538686e-10  1.0464659468678477e-09  1.2394298204380624e-09  1.4083745799120348e-09  1.5462422377014786e-09  1.6469471037907871e-09  1.7056168134201276e-09  1.7187888050363961e-09  1.6845546103589900e-09  1.6026463016240913e-09  1.4744616426859172e-09  1.3030268267696429e-09  1.0928980654212717e-09  8.5000563013475291e-10  5.8144615154853981e-10  2.9523096708499888e-10  0.0000000000000000e+00  0.0000000000000000e+00  -1.5719269415195956e-10  -3.0632057591267243e-10  -4.3984828963763479e-10  -5.5087369704377956e-10  -6.3341004605745279e-10  -6.8263249322366717e-10  -6.9507935899441740e-10  -6.6880023941037484e-10  -6.0344514544764968e-10  -5.0029111402449850e-10  -3.6220514508671946e-10  -1.9354477473504881e-10  -6.9045257762697789e-19  2.1161745894372590e-10  4.3362955669920461e-10  6.5778221060794259e-10  8.7555940141371292e-10  1.0785090406538473e-09  1.2585681095832126e-09  1.4083745799121111e-09  1.5215541176164168e-09  1.5929705220111951e-09  1.6189302275664513e-09  1.5973329430494530e-09  1.5277625547568786e-09  1.4115146994785404e-09  1.2515598314326152e-09  1.0524430734722575e-09  8.2012456233202491e-10  5.6176627818378650e-10  2.8547340291717138e-10  0.0000000000000000e+00  0.0000000000000000e+00  -1.8272911059714397e-10  -3.5699339473461513e-10  -5.1486557413317866e-10  -6.4907008519167799e-10  -7.5327428300077072e-10  -8.2234311352410981e-10  -8.5254736494919484e-10  -8.4171739664586488e-10  -7.8933634342324769e-10  -6.9656912316403038e-10  -5.6622604790734668e-10  -4.0266235710381144e-10  -2.1161746035891315e-10  -7.2516779030086105e-19  2.2437306072838036e-10  4.5307336299601617e-10  6.7738269696195299e-10  8.8862686527934588e-10  1.0785090406539308e-09  1.2394298204382212e-09  1.3647816743268524e-09  1.4492064531491902e-09  1.4888060331739452e-09  1.4812979581993124e-09  1.4261100426353895e-09  1.3244102324641520e-09  1.1790704981716952e-09  9.9456605978661866e-10  7.7681372241439623e-10  5.3295543620969790e-10  2.7109529784771257e-10  0.0000000000000000e+00  0.0000000000000000e+00  -2.0775765698221520e-10  -4.0672445913213206e-10  -5.8864522140478402e-10  -7.4592885789351086e-10  -8.7194594242556361e-10  -9.6128920062178944e-10  -1.0099868700318879e-09  -1.0156606784985571e-09  -9.7762232151280992e-10  -8.9690468500373488e-10  -7.7622656982613433e-10  -6.1989223177866385e-10  -4.3362955813503878e-10  -2.2437306219989080e-10  -7.4650483371879979e-19  2.3097027610592723e-10  4.5970221620667181e-10  6.7738269696204150e-10  8.7555940141388394e-10  1.0464659468680921e-09  1.1833212766009882e-09  1.2805918070623260e-09  1.3342062467356915e-09  1.3417148139119026e-09  1.3023867097475932e-09  1.2172420686143961e-09  1.0890171193309995e-09  9.2206385223858546e-10  7.2218800009107439e-10  4.9643150897649936e-10  2.5280780790417589e-10  0.0000000000000000e+00  0.0000000000000000e+00  -2.3141009485165647e-10  -4.5378669633313732e-10  -6.5861980826948359e-10  -8.3806957619706430e-10  -9.8526741251508555e-10  -1.0945798703489288e-09  -1.1618251243485229e-09  -1.1844337391001221e-09  -1.1615475474849181e-09  -1.0940528396426059e-09  -9.8454658674215700e-10  -8.3723699563827515e-10  -6.5778221205059263e-10  -4.5307336447452697e-10  -2.3097027760605469e-10  -7.5364720640848240e-19  2.3097027610601833e-10  4.5307336299619484e-10  6.5778221060820202e-10  8.3723699424571700e-10  9.8454658541284239e-10  1.0940528383893369e-09  1.1615475463197641e-09  1.1844337380343047e-09  1.1618251233923062e-09  1.0945798695115215e-09  9.8526741180455271e-10  8.3806957562024851e-10  6.5861980783193979e-10  4.5378669603907937e-10  2.3141009470391612e-10  0.0000000000000000e+00  0.0000000000000000e+00  -2.5280780805117891e-10  -4.9643150926909413e-10  -7.2218800052644695e-10  -9.2206385281254685e-10  -1.0890171200380253e-09  -1.2172420694476805e-09  -1.3023867106991139e-09  -1.3417148149724983e-09  -1.3342062478951497e-09  -1.2805918083094827e-09  -1.1833212779238341e-09  -1.0464659482538881e-09  -8.7555940284928529e-10  -6.7738269843322523e-10  -4.5970221769946998e-10  -2.3097027760596359e-10  -7.4632350308526140e-19  2.2437306072864754e-10  4.3362955669954991e-10  6.1989223039275469e-10  7.7622656850315282e-10  8.9690468375642314e-10  9.7762232035318170e-10  1.0156606774377821e-09  1.0099868690801839e-09  9.6128919978832433e-10  8.7194594171836658e-10  7.4592885731939561e-10  5.8864522096928294e-10  4.0672445883944273e-10  2.0775765683516033e-10  0.0000000000000000e+00  0.0000000000000000e+00  -2.7109529799256281e-10  -5.3295543649801191e-10  -7.7681372284340550e-10  -9.9456606035219886e-10  -1.1790704988684061e-09  -1.3244102332852898e-09  -1.4261100435730517e-09  -1.4812979592444733e-09  -1.4888060343165430e-09  -1.4492064543782249e-09  -1.3647816756304903e-09  -1.2394298218039098e-09  -1.0785090420685199e-09  -8.8862686672921337e-10  -6.7738269843313672e-10  -4.5307336447434829e-10  -2.2437306219962367e-10  -7.2481730619526563e-19  2.1161745894415127e-10  4.0266235573789906e-10  5.6622604660344017e-10  6.9656912193468934e-10  7.8933634228031425e-10  8.4171739560034943e-10  8.5254736401117037e-10  8.2234311270261452e-10  7.5327428230372123e-10  6.4907008462579329e-10  5.1486557370391504e-10  3.5699339444611371e-10  1.8272911045219107e-10  0.0000000000000000e+00  0.0000000000000000e+00  -2.8547340305847431e-10  -5.6176627846504425e-10  -8.2012456275054067e-10  -1.0524430740240113e-09  -1.2515598321123033e-09  -1.4115147002796262e-09  -1.5277625556716545e-09  -1.5973329440691158e-09  -1.6189302286811874e-09  -1.5929705232102737e-09  -1.5215541188882940e-09  -1.4083745812445419e-09  -1.2585681109633674e-09  -1.0785090420684366e-09  -8.7555940284911447e-10  -6.5778221205033331e-10  -4.3362955813469349e-10  -2.1161746035848772e-10  -6.8995603249755341e-19  1.9354477340228949e-10  3.6220514381444738e-10  5.0029111282496967e-10  6.0344514433242037e-10  6.6880023839019035e-10  6.9507935807910845e-10  6.8263249242205564e-10  6.3341004537726610e-10  5.5087369649157704e-10  4.3984828921874406e-10  3.0632057563113835e-10  1.5719269401050508e-10  0.0000000000000000e+00  0.0000000000000000e+00  -2.9523096722139450e-10  -5.8144615182003413e-10  -8.5000563053874689e-10  -1.0928980659538887e-09  -1.3030268274257663e-09  -1.4744616434592393e-09  -1.6026463025071748e-09  -1.6845546113433390e-09  -1.7187888061125382e-09  -1.7056168145777056e-09  -1.6469471050186579e-09  -1.5462422389878220e-09  -1.4083745812444656e-09  -1.2394298218037514e-09  -1.0464659482536438e-09  -8.3723699563794511e-10  -6.1989223177825109e-10  -4.0266235710332248e-10  -1.9354477473449310e-10  -6.4307913444749387e-19  1.7132916520137574e-10  3.1486498022117160e-10  4.2629919217332449e-10  5.0274680889248385e-10  5.4284341292548714e-10  5.4678241308701595e-10  5.1629094600041328e-10  4.5454550957712077e-10  3.6603073608662534e-10  2.5634690564382798e-10  1.3197377742794821e-10  0.0000000000000000e+00  0.0000000000000000e+00  -2.9977373770585438e-10  -5.9080904177989086e-10  -8.6468525669964988e-10  -1.1135835772816556e-09  -1.3305620404181894e-09  -1.5097975781520277e-09  -1.6467860540913414e-09  -1.7384928265118251e-09  -1.7834482805268560e-09  -1.7817848762280951e-09  -1.7352144906564706e-09  -1.6469471050185907e-09  -1.5215541188881515e-09  -1.3647816756302674e-09  -1.1833212779235282e-09  -9.8454658674176885e-10  -7.7622656982566769e-10  -5.6622604790680829e-10  -3.6220514508611903e-10  -1.7132916642910766e-10  -5.8598635085551648e-19  1.4638070539038598e-10  2.6360759500137754e-10  3.4881945871784478e-10  4.0059335263563224e-10  4.1898151657910161e-10  4.0548984244594285e-10  3.6299890314678256e-10  2.9563077112267776e-10  2.0856694787207952e-10  1.0782461191468874e-10  0.0000000000000000e+00  0.0000000000000000e+00  -2.9864937390093050e-10  -5.8895062534844230e-10  -8.6280920864319760e-10  -1.1126994875195741e-09  -1.3319257429836773e-09  -1.5148520701596894e-09  -1.6570925857147363e-09  -1.7556549043961113e-09  -1.8090316364656171e-09  -1.8172366415550486e-09  -1.7817848762280376e-09  -1.7056168145775817e-09  -1.5929705232100770e-09  -1.4492064543779507e-09  -1.2805918083091293e-09  -1.0940528396421747e-09  -8.9690468500322989e-10  -6.9656912316345869e-10  -5.0029111402386984e-10  -3.1486498137865939e-10  -1.4638070649531743e-10  -5.2086874137276378e-19  1.2022934550341663e-10  2.1151382851586500e-10  2.7240407638578692e-10  3.0283088431689847e-10  3.0408624817076460e-10  2.7875032684437365e-10  2.3056735610542738e-10  1.6427550776322399e-10  8.5397465078981765e-11  0.0000000000000000e+00  0.0000000000000000e+00  -2.9156759638265167e-10  -5.7528842866899404e-10  -8.4350053806408082e-10  -1.0890720638044482e-09  -1.3056455237283092e-09  -1.4878530792819626e-09  -1.6314948026398559e-09  -1.7336734022313118e-09  -1.7928805303064882e-09  -1.8090316364655697e-09  -1.7834482805267526e-09  -1.7187888061123707e-09  -1.6189302286809504e-09  -1.4888060343162324e-09  -1.3342062478947649e-09  -1.1615475474844602e-09  -9.7762232151228383e-10  -7.8933634342266039e-10  -6.0344514544701068e-10  -4.2629919324942707e-10  -2.6360759602863122e-10  -1.2022934647193079e-10  -4.5022459534534224e-19  9.4399680565347215e-11  1.6152823714008805e-10  2.0121810380790599e-10  2.1455915642585177e-10  2.0383206363329544e-10  1.7239423302130959e-10  1.2452297404872613e-10  6.5222150268635624e-11  0.0000000000000000e+00  0.0000000000000000e+00  -2.7841469130632388e-10  -5.4959075026036688e-10  -8.0640271423664022e-10  -1.0422109846131878e-09  -1.2510867799449685e-09  -1.4280103973959532e-09  -1.5690355005287285e-09  -1.6714134738971958e-09  -1.7336734022312750e-09  -1.7556549043960286e-09  -1.7384928265116882e-09  -1.6845546113431416e-09  -1.5973329440688532e-09  -1.4812979592441423e-09  -1.3417148149720983e-09  -1.1844337390996556e-09  -1.0156606784980281e-09  -8.4171739664528058e-10  -6.6880023940974443e-10  -5.0274680987684346e-10  -3.4881945965753168e-10  -2.1151382940183088e-10  -9.4399681389060454e-11  -3.7676371200476850e-19  7.0287155