<?xml version="1.0"?>
<VTKFile type="UnstructuredGrid"  version="0.1"  >
<UnstructuredGrid>
<Piece  NumberOfPoints="1089" NumberOfCells="2048">
<Points>
<DataArray  type="Float64"  NumberOfComponents="3"  format="ascii">0 0 0  0.03125 0 0  0.0625 0 0  0.09375 0 0  0.125 0 0  0.15625 0 0  0.1875 0 0  0.21875 0 0  0.25 0 0  0.28125 0 0  0.3125 0 0  0.34375 0 0  0.375 0 0  0.40625 0 0  0.4375 0 0  0.46875 0 0  0.5 0 0  0.53125 0 0  0.5625 0 0  0.59375 0 0  0.625 0 0  0.65625 0 0  0.6875 0 0  0.71875 0 0  0.75 0 0  0.78125 0 0  0.8125 0 0  0.84375 0 0  0.875 0 0  0.90625 0 0  0.9375 0 0  0.96875 0 0  1 0 0  0 0.03125 0  0.03125 0.03125 0  0.0625 0.03125 0  0.09375 0.03125 0  0.125 0.03125 0  0.15625 0.03125 0  0.1875 0.03125 0  0.21875 0.03125 0  0.25 0.03125 0  0.28125 0.03125 0  0.3125 0.03125 0  0.34375 0.03125 0  0.375 0.03125 0  0.40625 0.03125 0  0.4375 0.03125 0  0.46875 0.03125 0  0.5 0.03125 0  0.53125 0.03125 0  0.5625 0.03125 0  0.59375 0.03125 0  0.625 0.03125 0  0.65625 0.03125 0  0.6875 0.03125 0  0.71875 0.03125 0  0.75 0.03125 0  0.78125 0.03125 0  0.8125 0.03125 0  0.84375 0.03125 0  0.875 0.03125 0  0.90625 0.03125 0  0.9375 0.03125 0  0.96875 0.03125 0  1 0.03125 0  0 0.0625 0  0.03125 0.0625 0  0.0625 0.0625 0  0.09375 0.0625 0  0.125 0.0625 0  0.15625 0.0625 0  0.1875 0.0625 0  0.21875 0.0625 0  0.25 0.0625 0  0.28125 0.0625 0  0.3125 0.0625 0  0.34375 0.0625 0  0.375 0.0625 0  0.40625 0.0625 0  0.4375 0.0625 0  0.46875 0.0625 0  0.5 0.0625 0  0.53125 0.0625 0  0.5625 0.0625 0  0.59375 0.0625 0  0.625 0.0625 0  0.65625 0.0625 0  0.6875 0.0625 0  0.71875 0.0625 0  0.75 0.0625 0  0.78125 0.0625 0  0.8125 0.0625 0  0.84375 0.0625 0  0.875 0.0625 0  0.90625 0.0625 0  0.9375 0.0625 0  0.96875 0.0625 0  1 0.0625 0  0 0.09375 0  0.03125 0.09375 0  0.0625 0.09375 0  0.09375 0.09375 0  0.125 0.09375 0  0.15625 0.09375 0  0.1875 0.09375 0  0.21875 0.09375 0  0.25 0.09375 0  0.28125 0.09375 0  0.3125 0.09375 0  0.34375 0.09375 0  0.375 0.09375 0  0.40625 0.09375 0  0.4375 0.09375 0  0.46875 0.09375 0  0.5 0.09375 0  0.53125 0.09375 0  0.5625 0.09375 0  0.59375 0.09375 0  0.625 0.09375 0  0.65625 0.09375 0  0.6875 0.09375 0  0.71875 0.09375 0  0.75 0.09375 0  0.78125 0.09375 0  0.8125 0.09375 0  0.84375 0.09375 0  0.875 0.09375 0  0.90625 0.09375 0  0.9375 0.09375 0  0.96875 0.09375 0  1 0.09375 0  0 0.125 0  0.03125 0.125 0  0.0625 0.125 0  0.09375 0.125 0  0.125 0.125 0  0.15625 0.125 0  0.1875 0.125 0  0.21875 0.125 0  0.25 0.125 0  0.28125 0.125 0  0.3125 0.125 0  0.34375 0.125 0  0.375 0.125 0  0.40625 0.125 0  0.4375 0.125 0  0.46875 0.125 0  0.5 0.125 0  0.53125 0.125 0  0.5625 0.125 0  0.59375 0.125 0  0.625 0.125 0  0.65625 0.125 0  0.6875 0.125 0  0.71875 0.125 0  0.75 0.125 0  0.78125 0.125 0  0.8125 0.125 0  0.84375 0.125 0  0.875 0.125 0  0.90625 0.125 0  0.9375 0.125 0  0.96875 0.125 0  1 0.125 0  0 0.15625 0  0.03125 0.15625 0  0.0625 0.15625 0  0.09375 0.15625 0  0.125 0.15625 0  0.15625 0.15625 0  0.1875 0.15625 0  0.21875 0.15625 0  0.25 0.15625 0  0.28125 0.15625 0  0.3125 0.15625 0  0.34375 0.15625 0  0.375 0.15625 0  0.40625 0.15625 0  0.4375 0.15625 0  0.46875 0.15625 0  0.5 0.15625 0  0.53125 0.15625 0  0.5625 0.15625 0  0.59375 0.15625 0  0.625 0.15625 0  0.65625 0.15625 0  0.6875 0.15625 0  0.71875 0.15625 0  0.75 0.15625 0  0.78125 0.15625 0  0.8125 0.15625 0  0.84375 0.15625 0  0.875 0.15625 0  0.90625 0.15625 0  0.9375 0.15625 0  0.96875 0.15625 0  1 0.15625 0  0 0.1875 0  0.03125 0.1875 0  0.0625 0.1875 0  0.09375 0.1875 0  0.125 0.1875 0  0.15625 0.1875 0  0.1875 0.1875 0  0.21875 0.1875 0  0.25 0.1875 0  0.28125 0.1875 0  0.3125 0.1875 0  0.34375 0.1875 0  0.375 0.1875 0  0.40625 0.1875 0  0.4375 0.1875 0  0.46875 0.1875 0  0.5 0.1875 0  0.53125 0.1875 0  0.5625 0.1875 0  0.59375 0.1875 0  0.625 0.1875 0  0.65625 0.1875 0  0.6875 0.1875 0  0.71875 0.1875 0  0.75 0.1875 0  0.78125 0.1875 0  0.8125 0.1875 0  0.84375 0.1875 0  0.875 0.1875 0  0.90625 0.1875 0  0.9375 0.1875 0  0.96875 0.1875 0  1 0.1875 0  0 0.21875 0  0.03125 0.21875 0  0.0625 0.21875 0  0.09375 0.21875 0  0.125 0.21875 0  0.15625 0.21875 0  0.1875 0.21875 0  0.21875 0.21875 0  0.25 0.21875 0  0.28125 0.21875 0  0.3125 0.21875 0  0.34375 0.21875 0  0.375 0.21875 0  0.40625 0.21875 0  0.4375 0.21875 0  0.46875 0.21875 0  0.5 0.21875 0  0.53125 0.21875 0  0.5625 0.21875 0  0.59375 0.21875 0  0.625 0.21875 0  0.65625 0.21875 0  0.6875 0.21875 0  0.71875 0.21875 0  0.75 0.21875 0  0.78125 0.21875 0  0.8125 0.21875 0  0.84375 0.21875 0  0.875 0.21875 0  0.90625 0.21875 0  0.9375 0.21875 0  0.96875 0.21875 0  1 0.21875 0  0 0.25 0  0.03125 0.25 0  0.0625 0.25 0  0.09375 0.25 0  0.125 0.25 0  0.15625 0.25 0  0.1875 0.25 0  0.21875 0.25 0  0.25 0.25 0  0.28125 0.25 0  0.3125 0.25 0  0.34375 0.25 0  0.375 0.25 0  0.40625 0.25 0  0.4375 0.25 0  0.46875 0.25 0  0.5 0.25 0  0.53125 0.25 0  0.5625 0.25 0  0.59375 0.25 0  0.625 0.25 0  0.65625 0.25 0  0.6875 0.25 0  0.71875 0.25 0  0.75 0.25 0  0.78125 0.25 0  0.8125 0.25 0  0.84375 0.25 0  0.875 0.25 0  0.90625 0.25 0  0.9375 0.25 0  0.96875 0.25 0  1 0.25 0  0 0.28125 0  0.03125 0.28125 0  0.0625 0.28125 0  0.09375 0.28125 0  0.125 0.28125 0  0.15625 0.28125 0  0.1875 0.28125 0  0.21875 0.28125 0  0.25 0.28125 0  0.28125 0.28125 0  0.3125 0.28125 0  0.34375 0.28125 0  0.375 0.28125 0  0.40625 0.28125 0  0.4375 0.28125 0  0.46875 0.28125 0  0.5 0.28125 0  0.53125 0.28125 0  0.5625 0.28125 0  0.59375 0.28125 0  0.625 0.28125 0  0.65625 0.28125 0  0.6875 0.28125 0  0.71875 0.28125 0  0.75 0.28125 0  0.78125 0.28125 0  0.8125 0.28125 0  0.84375 0.28125 0  0.875 0.28125 0  0.90625 0.28125 0  0.9375 0.28125 0  0.96875 0.28125 0  1 0.28125 0  0 0.3125 0  0.03125 0.3125 0  0.0625 0.3125 0  0.09375 0.3125 0  0.125 0.3125 0  0.15625 0.3125 0  0.1875 0.3125 0  0.21875 0.3125 0  0.25 0.3125 0  0.28125 0.3125 0  0.3125 0.3125 0  0.34375 0.3125 0  0.375 0.3125 0  0.40625 0.3125 0  0.4375 0.3125 0  0.46875 0.3125 0  0.5 0.3125 0  0.53125 0.3125 0  0.5625 0.3125 0  0.59375 0.3125 0  0.625 0.3125 0  0.65625 0.3125 0  0.6875 0.3125 0  0.71875 0.3125 0  0.75 0.3125 0  0.78125 0.3125 0  0.8125 0.3125 0  0.84375 0.3125 0  0.875 0.3125 0  0.90625 0.3125 0  0.9375 0.3125 0  0.96875 0.3125 0  1 0.3125 0  0 0.34375 0  0.03125 0.34375 0  0.0625 0.34375 0  0.09375 0.34375 0  0.125 0.34375 0  0.15625 0.34375 0  0.1875 0.34375 0  0.21875 0.34375 0  0.25 0.34375 0  0.28125 0.34375 0  0.3125 0.34375 0  0.34375 0.34375 0  0.375 0.34375 0  0.40625 0.34375 0  0.4375 0.34375 0  0.46875 0.34375 0  0.5 0.34375 0  0.53125 0.34375 0  0.5625 0.34375 0  0.59375 0.34375 0  0.625 0.34375 0  0.65625 0.34375 0  0.6875 0.34375 0  0.71875 0.34375 0  0.75 0.34375 0  0.78125 0.34375 0  0.8125 0.34375 0  0.84375 0.34375 0  0.875 0.34375 0  0.90625 0.34375 0  0.9375 0.34375 0  0.96875 0.34375 0  1 0.34375 0  0 0.375 0  0.03125 0.375 0  0.0625 0.375 0  0.09375 0.375 0  0.125 0.375 0  0.15625 0.375 0  0.1875 0.375 0  0.21875 0.375 0  0.25 0.375 0  0.28125 0.375 0  0.3125 0.375 0  0.34375 0.375 0  0.375 0.375 0  0.40625 0.375 0  0.4375 0.375 0  0.46875 0.375 0  0.5 0.375 0  0.53125 0.375 0  0.5625 0.375 0  0.59375 0.375 0  0.625 0.375 0  0.65625 0.375 0  0.6875 0.375 0  0.71875 0.375 0  0.75 0.375 0  0.78125 0.375 0  0.8125 0.375 0  0.84375 0.375 0  0.875 0.375 0  0.90625 0.375 0  0.9375 0.375 0  0.96875 0.375 0  1 0.375 0  0 0.40625 0  0.03125 0.40625 0  0.0625 0.40625 0  0.09375 0.40625 0  0.125 0.40625 0  0.15625 0.40625 0  0.1875 0.40625 0  0.21875 0.40625 0  0.25 0.40625 0  0.28125 0.40625 0  0.3125 0.40625 0  0.34375 0.40625 0  0.375 0.40625 0  0.40625 0.40625 0  0.4375 0.40625 0  0.46875 0.40625 0  0.5 0.40625 0  0.53125 0.40625 0  0.5625 0.40625 0  0.59375 0.40625 0  0.625 0.40625 0  0.65625 0.40625 0  0.6875 0.40625 0  0.71875 0.40625 0  0.75 0.40625 0  0.78125 0.40625 0  0.8125 0.40625 0  0.84375 0.40625 0  0.875 0.40625 0  0.90625 0.40625 0  0.9375 0.40625 0  0.96875 0.40625 0  1 0.40625 0  0 0.4375 0  0.03125 0.4375 0  0.0625 0.4375 0  0.09375 0.4375 0  0.125 0.4375 0  0.15625 0.4375 0  0.1875 0.4375 0  0.21875 0.4375 0  0.25 0.4375 0  0.28125 0.4375 0  0.3125 0.4375 0  0.34375 0.4375 0  0.375 0.4375 0  0.40625 0.4375 0  0.4375 0.4375 0  0.46875 0.4375 0  0.5 0.4375 0  0.53125 0.4375 0  0.5625 0.4375 0  0.59375 0.4375 0  0.625 0.4375 0  0.65625 0.4375 0  0.6875 0.4375 0  0.71875 0.4375 0  0.75 0.4375 0  0.78125 0.4375 0  0.8125 0.4375 0  0.84375 0.4375 0  0.875 0.4375 0  0.90625 0.4375 0  0.9375 0.4375 0  0.96875 0.4375 0  1 0.4375 0  0 0.46875 0  0.03125 0.46875 0  0.0625 0.46875 0  0.09375 0.46875 0  0.125 0.46875 0  0.15625 0.46875 0  0.1875 0.46875 0  0.21875 0.46875 0  0.25 0.46875 0  0.28125 0.46875 0  0.3125 0.46875 0  0.34375 0.46875 0  0.375 0.46875 0  0.40625 0.46875 0  0.4375 0.46875 0  0.46875 0.46875 0  0.5 0.46875 0  0.53125 0.46875 0  0.5625 0.46875 0  0.59375 0.46875 0  0.625 0.46875 0  0.65625 0.46875 0  0.6875 0.46875 0  0.71875 0.46875 0  0.75 0.46875 0  0.78125 0.46875 0  0.8125 0.46875 0  0.84375 0.46875 0  0.875 0.46875 0  0.90625 0.46875 0  0.9375 0.46875 0  0.96875 0.46875 0  1 0.46875 0  0 0.5 0  0.03125 0.5 0  0.0625 0.5 0  0.09375 0.5 0  0.125 0.5 0  0.15625 0.5 0  0.1875 0.5 0  0.21875 0.5 0  0.25 0.5 0  0.28125 0.5 0  0.3125 0.5 0  0.34375 0.5 0  0.375 0.5 0  0.40625 0.5 0  0.4375 0.5 0  0.46875 0.5 0  0.5 0.5 0  0.53125 0.5 0  0.5625 0.5 0  0.59375 0.5 0  0.625 0.5 0  0.65625 0.5 0  0.6875 0.5 0  0.71875 0.5 0  0.75 0.5 0  0.78125 0.5 0  0.8125 0.5 0  0.84375 0.5 0  0.875 0.5 0  0.90625 0.5 0  0.9375 0.5 0  0.96875 0.5 0  1 0.5 0  0 0.53125 0  0.03125 0.53125 0  0.0625 0.53125 0  0.09375 0.53125 0  0.125 0.53125 0  0.15625 0.53125 0  0.1875 0.53125 0  0.21875 0.53125 0  0.25 0.53125 0  0.28125 0.53125 0  0.3125 0.53125 0  0.34375 0.53125 0  0.375 0.53125 0  0.40625 0.53125 0  0.4375 0.53125 0  0.46875 0.53125 0  0.5 0.53125 0  0.53125 0.53125 0  0.5625 0.53125 0  0.59375 0.53125 0  0.625 0.53125 0  0.65625 0.53125 0  0.6875 0.53125 0  0.71875 0.53125 0  0.75 0.53125 0  0.78125 0.531
[...]
<PointData  Scalars="phi"> 
<DataArray  type="Float64"  Name="phi"  format="ascii">0.0000000000000000e+00  0.0000000000000000e+00  0.0000000000000000e+00  0.0000000000000000e+00  0.0000000000000000e+00  0.0000000000000000e+00  0.0000000000000000e+00  0.0000000000000000e+00  0.0000000000000000e+00  0.0000000000000000e+00  0.0000000000000000e+00  0.0000000000000000e+00  0.0000000000000000e+00  0.0000000000000000e+00  0.0000000000000000e+00  0.0000000000000000e+00  0.0000000000000000e+00  0.0000000000000000e+00  0.0000000000000000e+00  0.0000000000000000e+00  0.0000000000000000e+00  0.0000000000000000e+00  0.0000000000000000e+00  0.0000000000000000e+00  0.0000000000000000e+00  0.0000000000000000e+00  0.0000000000000000e+00  0.0000000000000000e+00  0.0000000000000000e+00  0.0000000000000000e+00  0.0000000000000000e+00  0.0000000000000000e+00  0.0000000000000000e+00  0.0000000000000000e+00  -2.9243618390719715e-15  2.1517460145768538e-04  8.4792075333116053e-04  2.0795649825598459e-03  4.0617525187999007e-03  6.9089010512582184e-03  1.0692099265656882e-02  1.5434730900446369e-02  2.1110022004164220e-02  2.7640627643328981e-02  3.4900291847666021e-02  4.2717532196766828e-02  5.0881220511727422e-02  5.9147856350418658e-02  6.7250263139781927e-02  7.4907380318032318e-02  8.1834780951313163e-02  8.7755514622566450e-02  9.2410861125038407e-02  9.5570582214934210e-02  9.7042276383666096e-02  9.6679474723845110e-02  9.4388163395733637e-02  9.0131478475762097e-02  8.3932390472990850e-02  7.5874277328811371e-02  6.6099376808985283e-02  5.4805217829958577e-02  4.2239278192829667e-02  2.8692381131513588e-02  1.4491996118990332e-02  0.0000000000000000e+00  0.0000000000000000e+00  -2.1517460146921688e-04  -1.1374304113136353e-14  1.0498593786505315e-03  3.2971659892189098e-03  7.0457429033295715e-03  1.2525352856701125e-02  1.9879494581326491e-02  2.9156648702670231e-02  4.0305358061989864e-02  5.3173371038401966e-02  6.7510914376844700e-02  8.2977998845127549e-02  9.9155502234538340e-02  1.1555962550043100e-01  1.3165918473976224e-01  1.4689508925300912e-01  1.6070126843373117e-01  1.7252625104331118e-01  1.8185457187388321e-01  1.8822718404329636e-01  1.9126009018251394e-01  1.9066047138831138e-01  1.8623968677544772e-01  1.7792263564193658e-01  1.6575311496638856e-01  1.4989496350124115e-01  1.3062895746884146e-01  1.0834561212994030e-01  8.3534254629464788e-02  5.6768980211476618e-02  2.8692381131513671e-02  0.0000000000000000e+00  0.0000000000000000e+00  -8.4792075334807842e-04  -1.0498593786839147e-03  -2.4496735561669568e-14  2.8459987236237787e-03  7.9449277394073939e-03  1.5643377513801775e-02  2.6159472866054367e-02  3.9569761648301616e-02  5.5801820206061878e-02  7.4632911907108856e-02  9.5694796494448300e-02  1.1848454638179813e-01  1.4238099021588072e-01  1.6666618292229377e-01  1.9055110340752690e-01  2.1320461366688431e-01  2.3378458267376803e-01  2.5146999013657267e-01  2.6549278245252511e-01  2.7516825768929565e-01  2.7992280813124815e-01  2.7931794602247412e-01  2.7306967714658376e-01  2.6106246285097540e-01  2.4335721789362064e-01  2.2019302203870120e-01  1.9198247005579488e-01  1.5930083930705827e-01  1.2286950489647884e-01  8.3534254629465204e-02  4.2239278192830007e-02  0.0000000000000000e+00  0.0000000000000000e+00  -2.0795649825817285e-03  -3.2971659892620945e-03  -2.8459987236871538e-03  -4.0980866365866242e-14  5.8515595940777003e-03  1.5174028897631472e-02  2.8263144548096072e-02  4.5227614560968486e-02  6.5979252237346381e-02  9.0231100698108913e-02  1.1750367605003810e-01  1.4713913975304577e-01  1.7832290043209656e-01  2.1011185407226671e-01  2.4146821042894645e-01  2.7129763261450335e-01  2.9849024470094493e-01  3.2196294546630971e-01  3.4070140966265650e-01  3.5380016366418293e-01  3.6049918996577457e-01  3.6021564228600628e-01  3.5256943526408657e-01  3.3740170312421147e-01  3.1478539155444912e-01  2.8502754609878150e-01  2.4866317662050683e-01  2.0644089659070775e-01  1.5930083930705941e-01  1.0834561212994162e-01  5.4805217829959410e-02  0.0000000000000000e+00  0.0000000000000000e+00  -4.0617525188262138e-03  -7.0457429033814996e-03  -7.9449277394835864e-03  -5.8515595941762040e-03  -5.9162976237964895e-14  1.0196046810031873e-02  2.5113486424595082e-02  4.4898199628046406e-02  6.9452723042036188e-02  9.8433786217927130e-02  1.3125986300201681e-01  1.6712850474780092e-01  2.0504284105849568e-01  2.4384627500223363e-01  2.8226407800697595e-01  3.1895031733175455e-01  3.5253833664741341e-01  3.8169286606998049e-01  4.0516176758982964e-01  4.2182542802089856e-01  4.3074189421251119e-01  4.3118600124275014e-01  4.2268096773635438e-01  4.0502121477185715e-01  3.7828549512008725e-01  3.4283978469594861e-01  2.9932977299151570e-01  2.4866317662050919e-01  1.9198247005579810e-01  1.3062895746884429e-01  6.6099376808986907e-02  0.0000000000000000e+00  0.0000000000000000e+00  -6.9089010512883306e-03  -1.2525352856760543e-02  -1.5643377513888935e-02  -1.5174028897744102e-02  -1.0196046810167078e-02  -7.7176520143958811e-14  1.5876054201741915e-02  3.7620839643438118e-02  6.5135124427694299e-02  9.8028616052025910e-02  1.3562867610672424e-01  1.7700058245855296e-01  2.2097861690900084e-01  2.6620683346340607e-01  3.1118798294708794e-01  3.5433874842680518e-01  3.9404919516744841e-01  4.2874416838932550e-01  4.5694428852220775e-01  4.7732420027135064e-01  4.8876582844107602e-01  4.9040457645272961e-01  4.8166666584134793e-01  4.6229614659009655e-01  4.3237049602691147e-01  3.9230415279305997e-01  3.4283978469595278e-01  2.8502754609878767e-01  2.2019302203870750e-01  1.4989496350124620e-01  7.5874277328814160e-02  0.0000000000000000e+00  0.0000000000000000e+00  -1.0692099265690085e-02  -1.9879494581391995e-02  -2.6159472866150415e-02  -2.8263144548220119e-02  -2.5113486424743859e-02  -1.5876054201911571e-02  -9.3110449666021664e-14  2.2752260146670509e-02  5.2287946694062781e-02  8.8180117135646302e-02  1.2967738368695159e-01  1.7572684034092961e-01  2.2500937765967163e-01  2.7598608059640628e-01  3.2695397106189011e-01  3.7610898962659423e-01  4.2161382389236424e-01  4.6166799578430312e-01  4.9457752389268317e-01  5.1882148380754323e-01  5.3311289894161529e-01  5.3645160246844681e-01  5.2816700972414532e-01  5.0794911819799149e-01  4.7586649438944123e-01  4.3237049602691791e-01  3.7828549512009746e-01  3.1478539155446061e-01  2.4335721789363124e-01  1.6575311496639661e-01  8.3932390472995166e-02  0.0000000000000000e+00  0.0000000000000000e+00  -1.5434730900481902e-02  -2.9156648702740314e-02  -3.9569761648404325e-02  -4.5227614561101026e-02  -4.4898199628205203e-02  -3.7620839643618953e-02  -2.2752260146868646e-02  -1.0518286851589340e-13  3.0558202022741961e-02  6.8469865281647835e-02  1.1291831601390426e-01  1.6274798769039700e-01  2.1650356083204492e-01  2.7248149130511962e-01  3.2879199234838297e-01  3.8342912557463660e-01  4.3434633578309889e-01  4.7953454601637352e-01  5.1709982137142885e-01  5.4533761685124993e-01  5.6280074582814477e-01  5.6835843686905974e-01  5.6124417888487133e-01  5.4109047502321261e-01  5.0794911819800082e-01  4.6229614659011187e-01  4.0502121477187547e-01  3.3740170312422990e-01  2.6106246285099144e-01  1.7792263564194841e-01  9.0131478475768342e-02  0.0000000000000000e+00  0.0000000000000000e+00  -2.1110022004201291e-02  -4.0305358062062951e-02  -5.5801820206168924e-02  -6.5979252237484382e-02  -6.9452723042201320e-02  -6.5135124427882024e-02  -5.2287946694268034e-02  -3.0558202022959297e-02  -1.1189836862430738e-13  3.8920127617723010e-02  8.5334427224348031e-02  1.3800128300656178e-01  1.9534774321138790e-01  2.5552563076273560e-01  3.1647912648183035e-01  3.7602126423926363e-01  4.3191642632062233e-01  4.8196568769392795e-01  5.2409173901097095e-01  5.5642012469764868e-01  5.7735366420763834e-01  5.8563717642525515e-01  5.8040998967078206e-01  5.6124417888488387e-01  5.2816700972416664e-01  4.8166666584137452e-01  4.2268096773638275e-01  3.5256943526411350e-01  2.7306967714660652e-01  1.8623968677546410e-01  9.4388163395742200e-02  0.0000000000000000e+00  0.0000000000000000e+00  -2.7640627643366791e-02  -5.3173371038476490e-02  -7.4632911907217922e-02  -9.0231100698249342e-02  -9.8433786218094885e-02  -9.8028616052216230e-02  -8.8180117135853858e-02  -6.8469865281866882e-02  -3.8920127617947650e-02  -1.1218078578216215e-13  4.7386261955413289e-02  1.0192833057053366e-01  1.6195524997222621e-01  2.2549553875874842e-01  2.9034968385699911e-01  3.5417227427869197e-01  4.1456064501250234e-01  4.6914664264830797e-01  5.1568799552875288e-01  5.5215577728320575e-01  5.7681459335663299e-01  5.8829239025986624e-01  5.8563717642527102e-01  5.6835843686908782e-01  5.3645160246848289e-01  4.9040457645276964e-01  4.3118600124279038e-01  3.6021564228604308e-01  2.7931794602250454e-01  1.9066047138833303e-01  9.6679474723856337e-02  0.0000000000000000e+00  0.0000000000000000e+00  -3.4900291847703796e-02  -6.7510914376919112e-02  -9.5694796494557088e-02  -1.1750367605017799e-01  -1.3125986300218362e-01  -1.3562867610691298e-01  -1.2967738368715676e-01  -1.1291831601411990e-01  -8.5334427224568091e-02  -4.7386261955631698e-02  -1.0547385922013662e-13  5.5463016335438417e-02  1.1725415098205796e-01  1.8330094372532618e-01  2.5128377978700456e-01  3.1872284454042699e-01  3.8307204612922796e-01  4.4181631341279720e-01  4.9256853901132147e-01  5.3316244262318035e-01  5.6173777809921099e-01  5.7681459335665242e-01  5.7735366420767331e-01  5.6280074582819095e-01  5.3311289894166836e-01  4.8876582844113148e-01  4.3074189421256481e-01  3.6049918996582253e-01  2.7992280813128717e-01  1.9126009018254145e-01  9.7042276383680307e-02  0.0000000000000000e+00  0.0000000000000000e+00  -4.2717532196803833e-02  -8.2977998845200393e-02  -1.1848454638190450e-01  -1.4713913975318232e-01  -1.6712850474796334e-01  -1.7700058245873618e-01  -1.7572684034112798e-01  -1.6274798769060450e-01  -1.3800128300677222e-01  -1.0192833057074087e-01  -5.5463016335636522e-02  -9.1790277966237012e-14  6.2655068576079942e-02  1.3035173353536259e-01  2.0067480732801080e-01  2.7103528537142030e-01  3.3876862869448887e-01  4.0123665266845671e-01  4.5592911462174374e-01  5.0056109769710100e-01  5.3316244262320311e-01  5.5215577728324761e-01  5.5642012469770519e-01  5.4533761685131665e-01  5.1882148380761517e-01  4.7732420027142303e-01  4.2182542802096690e-01  3.5380016366424299e-01  2.7516825768934400e-01  1.8822718404333019e-01  9.5570582214951613e-02  0.0000000000000000e+00  0.0000000000000000e+00  -5.0881220511762984e-02  -9.9155502234608284e-02  -1.4238099021598272e-01  -1.7832290043222720e-01  -2.0504284105865067e-01  -2.2097861690917503e-01  -2.2500937765985932e-01  -2.1650356083224004e-01  -1.9534774321158418e-01  -1.6195524997241753e-01  -1.1725415098223846e-01  -6.2655068576244255e-02  -7.1722450086244721e-14  6.8505909227686221e-02  1.4037704574947432e-01  2.1294130764039429e-01  2.8344178876262160e-01  3.4914227341616588e-01  4.0743249483215133e-01  4.5592911462176944e-01  4.9256853901136954e-01  5.1568799552881939e-01  5.2409173901105111e-01  5.1709982137151744e-01  4.9457752389277526e-01  4.5694428852229818e-01  4.0516176758991357e-01  3.4070140966272944e-01  2.6549278245258329e-01  1.8185457187392370e-01  9.2410861125059168e-02  0.0000000000000000e+00  0.0000000000000000e+00  -5.9147856350452180e-02  -1.1555962550049687e-01  -1.6666618292238969e-01  -2.1011185407238925e-01  -2.4384627500237843e-01  -2.6620683346356810e-01  -2.7598608059657981e-01  -2.7248149130529864e-01  -2.5552563076291396e-01  -2.2549553875891995e-01  -1.8330094372548514e-01  -1.3035173353550369e-01  -6.8505909227805015e-02  -4.6419431066501915e-14  7.2635405769024941e-02  1.4667178402742348e-01  2.1928677278683495e-01  2.8767225407263564e-01  3.4914227341619408e-01  4.0123665266851022e-01  4.4181631341287242e-01  4.6914664264840050e-01  4.8196568769403270e-01  4.7953454601648521e-01  4.6166799578441620e-01  4.2874416838943458e-01  3.8169286607008035e-01  3.2196294546639570e-01  2.5146999013664084e-01  1.7252625104335839e-01  8.7755514622590597e-02  0.0000000000000000e+00  0.0000000000000000e+00  -6.7250263139812930e-02  -1.3165918473982308e-01  -1.9055110340761530e-01  -2.4146821042905905e-01  -2.8226407800710840e-01  -3.1118798294723532e-01  -3.2695397106204677e-01  -3.2879199234854295e-01  -3.1647912648198773e-01  -2.9034968385714771e-01  -2.5128377978713889e-01  -2.0067480732812579e-01  -1.4037704574956564e-01  -7.2635405769089237e-02  -1.7452847571704101e-14  7.4771188753917014e-02  1.4881781009441891e-01  2.1928677278686481e-01  2.8344178876267934e-01  3.3876862869457136e-01  3.8307204612933116e-01  4.1456064501262158e-01  4.3191642632075222e-01  4.3434633578323378e-01  4.2161382389249835e-01  3.9404919516757597e-01  3.5253833664752904e-01  2.9849024470104385e-01  2.3378458267384603e-01  1.6070126843378504e-01  8.1834780951340641e-02  0.0000000000000000e+00  0.0000000000000000e+00  -7.4907380318060407e-02  -1.4689508925306419e-01  -2.1320461366696408e-01  -2.7129763261460460e-01  -3.1895031733187301e-01  -3.5433874842693602e-01  -3.7610898962673195e-01  -3.8342912557477543e-01  -3.7602126423939775e-01  -3.5417227427881554e-01  -3.1872284454053462e-01  -2.7103528537150717e-01  -2.1294130764045643e-01  -1.4667178402745773e-01  -7.4771188753921317e-02  1.3293626649249018e-14  7.4771188753947768e-02  1.4667178402748376e-01  2.1294130764048186e-01  2.7103528537153171e-01  3.1872284454055799e-01  3.5417227427883746e-01  3.7602126423941801e-01  3.8342912557479403e-01  3.7610898962674855e-01  3.5433874842695057e-01  3.1895031733188534e-01  2.7129763261461459e-01  2.1320461366697166e-01  1.4689508925306927e-01  7.4907380318062974e-02  0.0000000000000000e+00  0.0000000000000000e+00  -8.1834780951338087e-02  -1.6070126843377994e-01  -2.3378458267383845e-01  -2.9849024470103380e-01  -3.5253833664751671e-01  -3.9404919516756143e-01  -4.2161382389248170e-01  -4.3434633578321524e-01  -4.3191642632073191e-01  -4.1456064501259965e-01  -3.8307204612930784e-01  -3.3876862869454688e-01  -2.8344178876265397e-01  -2.1928677278683884e-01  -1.4881781009439260e-01  -7.4771188753890550e-02  4.3758220189019327e-14  7.2635405769115147e-02  1.4037704574959090e-01  2.0067480732815013e-01  2.5128377978716210e-01  2.9034968385716947e-01  3.1647912648200782e-01  3.2879199234856138e-01  3.2695397106206320e-01  3.1118798294724964e-01  2.8226407800712061e-01  2.4146821042906896e-01  1.9055110340762282e-01  1.3165918473982813e-01  6.7250263139815455e-02  0.0000000000000000e+00  0.0000000000000000e+00  -8.7755514622588057e-02  -1.7252625104335334e-01  -2.5146999013663329e-01  -3.2196294546638576e-01  -3.8169286607006808e-01  -4.2874416838942014e-01  -4.6166799578439971e-01  -4.7953454601646683e-01  -4.8196568769401255e-01  -4.6914664264837880e-01  -4.4181631341284938e-01  -4.0123665266848607e-01  -3.4914227341616905e-01  -2.8767225407260999e-01  -2.1928677278680897e-01  -1.4667178402739739e-01  -7.2635405768999017e-02  7.1928559694948949e-14  6.8505909227829842e-02  1.3035173353552762e-01  1.8330094372550790e-01  2.2549553875894132e-01  2.5552563076293372e-01  2.7248149130531668e-01  2.7598608059659596e-01  2.6620683346358220e-01  2.4384627500239042e-01  2.1011185407239893e-01  1.6666618292239702e-01  1.1555962550050181e-01  5.9147856350454664e-02  0.0000000000000000e+00  0.0000000000000000e+00  -9.2410861125056656e-02  -1.8185457187391871e-01  -2.6549278245257590e-01  -3.4070140966271961e-01  -4.0516176758990152e-01  -4.5694428852228403e-01  -4.9457752389275905e-01  -5.1709982137149935e-01  -5.2409173901103123e-01  -5.1568799552879807e-01  -4.9256853901134701e-01  -4.5592911462174585e-01  -4.0743249483212685e-01  -3.4914227341614085e-01  -2.8344178876259618e-01  -2.1294130764036884e-01  -1.4037704574944901e-01  -6.8505909227661338e-02  9.5933254965745364e-14  6.2655068576267542e-02  1.1725415098226062e-01  1.6195524997243835e-01  1.9534774321160345e-01  2.1650356083225758e-01  2.2500937765987503e-01  2.2097861690918874e-01  2.0504284105866227e-01  1.7832290043223661e-01  1.4238099021598985e-01  9.9155502234613085e-02  5.0881220511765392e-02  0.0000000000000000e+00  0.0000000000000000e+00  -9.5570582214949171e-02  -1.8822718404332536e-01  -2.7516825768933684e-01  -3.5380016366423350e-01  -4.2182542802095518e-01  -4.7732420027140926e-01  -5.1882148380759940e-01  -5.4533761685129911e-01  -5.5642012469768609e-01  -5.5215577728322696e-01  -5.3316244262318113e-01  -5.0056109769707813e-01  -4.5592911462172003e-01  -4.0123665266843245e-01  -3.3876862869446434e-01  -2.7103528537139565e-01  -2.0067480732798634e-01  -1.3035173353533855e-01  -6.2655068576056586e-02  1.1424659410717387e-13  5.5463016335657873e-02  1.0192833057076092e-01  1.3800128300679079e-01  1.6274798769062143e-01  1.7572684034114311e-01  1.7700058245874939e-01  1.6712850474797450e-01  1.4713913975319134e-01  1.1848454638191136e-01  8.2977998845205000e-02  4.2717532196806150e-02  0.0000000000000000e+00  0.0000000000000000e+00  -9.7042276383677961e-02  -1.9126009018253681e-01  -2.7992280813128029e-01  -3.6049918996581343e-01  -4.3074189421255360e-01  -4.8876582844111827e-01  -5.3311289894165326e-01  -5.6280074582817408e-01  -5.7735366420765499e-01  -5.7681459335663265e-01  -5.6173777809919001e-01  -5.3316244262315837e-01  -4.9256853901129877e-01  -4.4181631341277400e-01  -3.8307204612920442e-01  -3.1872284454040345e-01  -2.5128377978698124e-01  -1.8330094372530326e-01  -1.1725415098203566e-01  -5.5463016335416990e-02  1.2583415570644713e-13  4.7386261955650814e-02  8.5334427224585785e-02  1.1291831601413602e-01  1.2967738368717116e-01  1.3562867610692556e-01  1.3125986300219422e-01  1.1750367605018659e-01  9.5694796494563611e-02  6.7510914376923498e-02  3.4900291847706003e-02  0.0000000000000000e+00  0.0000000000000000e+00  -9.6679474723854131e-02  -1.9066047138832862e-01  -2.7931794602249804e-01  -3.6021564228603448e-01  -4.3118600124277973e-01  -4.9040457645275715e-01  -5.3645160246846857e-01  -5.6835843686907184e-01  -5.8563717642525370e-01  -5.8829239025984759e-01  -5.7681459335661311e-01  -5.5215577728318510e-01  -5.1568799552873146e-01  -4.6914664264828604e-01  -4.1456064501248013e-01  -3.5417227427866971e-01  -2.9034968385697701e-01  -2.2549553875872677e-01  -1.6195524997220517e-01  -1.0192833057051347e-01  -4.7386261955394103e-02  1.3018144378536311e-13  3.8920127617964310e-02  6.8469865281882064e-02  8.8180117135867403e-02  9.8028616052228054e-02  9.8433786218104877e-02  9.0231100698257433e-02  7.4632911907224042e-02  5.3173371038480605e-02  2.7640627643368859e-02  0.0000000000000000e+00  0.0000000000000000e+00  -9.4388163395740132e-02  -1.8623968677545999e-01  -2.7306967714660041e-01  -3.5256943526410545e-01  -4.2268096773637276e-01  -4.8166666584136281e-01  -5.2816700972415320e-01  -5.6124417888486899e-01  -5.8040998967076585e-01  -5.8563717642523772e-01  -5.7735366420761991e-01  -5.5642012469762925e-01  -5.2409173901095096e-01  -4.8196568769390746e-01  -4.3191642632060162e-01  -3.7602126423924292e-01  -3.1647912648180981e-01  -2.5552563076271545e-01  -1.9534774321136833e-01  -1.3800128300654302e-01  -8.5334427224330198e-02  -3.8920127617706288e-02  1.2736934549357295e-13  3.0558202022973376e-02  5.2287946694280607e-02  6.5135124427892988e-02  6.9452723042210590e-02  6.5979252237491889e-02  5.5801820206174614e-02  4.0305358062066768e-02  2.1110022004203210e-02  0.0000000000000000e+00  0.0000000000000000e+00  -9.0131478475766441e-02  -1.7792263564194466e-01  -2.6106246285098583e-01  -3.3740170312422252e-01  -4.0502121477186631e-01  -4.6229614659010115e-01  -5.0794911819798849e-01  -5.4109047502319896e-01  -5.6124417888485645e-01  -5.6835843686904375e-01  -5.6280074582812778e-01  -5.4533761685123228e-01  -5.1709982137141042e-01  -4.7953454601635481e-01  -4.3434633578307996e-01  -3.8342912557461761e-01  -3.2879199234836409e-01  -2.7248149130510113e-01  -2.1650356083202704e-01  -1.6274798769037982e-01  -1.1291831601388795e-01  -6.8469865281632555e-02  -3.0558202022727823e-02  1.1804929124903748e-13  2.2752260146880133