<?xml version="1.0"?>
<VTKFile type="UnstructuredGrid"  version="0.1"  >
<UnstructuredGrid>
<Piece  NumberOfPoints="1089" NumberOfCells="2048">
<Points>
<DataArray  type="Float64"  NumberOfComponents="3"  format="ascii">0 0 0  0.03125 0 0  0.0625 0 0  0.09375 0 0  0.125 0 0  0.15625 0 0  0.1875 0 0  0.21875 0 0  0.25 0 0  0.28125 0 0  0.3125 0 0  0.34375 0 0  0.375 0 0  0.40625 0 0  0.4375 0 0  0.46875 0 0  0.5 0 0  0.53125 0 0  0.5625 0 0  0.59375 0 0  0.625 0 0  0.65625 0 0  0.6875 0 0  0.71875 0 0  0.75 0 0  0.78125 0 0  0.8125 0 0  0.84375 0 0  0.875 0 0  0.90625 0 0  0.9375 0 0  0.96875 0 0  1 0 0  0 0.03125 0  0.03125 0.03125 0  0.0625 0.03125 0  0.09375 0.03125 0  0.125 0.03125 0  0.15625 0.03125 0  0.1875 0.03125 0  0.21875 0.03125 0  0.25 0.03125 0  0.28125 0.03125 0  0.3125 0.03125 0  0.34375 0.03125 0  0.375 0.03125 0  0.40625 0.03125 0  0.4375 0.03125 0  0.46875 0.03125 0  0.5 0.03125 0  0.53125 0.03125 0  0.5625 0.03125 0  0.59375 0.03125 0  0.625 0.03125 0  0.65625 0.03125 0  0.6875 0.03125 0  0.71875 0.03125 0  0.75 0.03125 0  0.78125 0.03125 0  0.8125 0.03125 0  0.84375 0.03125 0  0.875 0.03125 0  0.90625 0.03125 0  0.9375 0.03125 0  0.96875 0.03125 0  1 0.03125 0  0 0.0625 0  0.03125 0.0625 0  0.0625 0.0625 0  0.09375 0.0625 0  0.125 0.0625 0  0.15625 0.0625 0  0.1875 0.0625 0  0.21875 0.0625 0  0.25 0.0625 0  0.28125 0.0625 0  0.3125 0.0625 0  0.34375 0.0625 0  0.375 0.0625 0  0.40625 0.0625 0  0.4375 0.0625 0  0.46875 0.0625 0  0.5 0.0625 0  0.53125 0.0625 0  0.5625 0.0625 0  0.59375 0.0625 0  0.625 0.0625 0  0.65625 0.0625 0  0.6875 0.0625 0  0.71875 0.0625 0  0.75 0.0625 0  0.78125 0.0625 0  0.8125 0.0625 0  0.84375 0.0625 0  0.875 0.0625 0  0.90625 0.0625 0  0.9375 0.0625 0  0.96875 0.0625 0  1 0.0625 0  0 0.09375 0  0.03125 0.09375 0  0.0625 0.09375 0  0.09375 0.09375 0  0.125 0.09375 0  0.15625 0.09375 0  0.1875 0.09375 0  0.21875 0.09375 0  0.25 0.09375 0  0.28125 0.09375 0  0.3125 0.09375 0  0.34375 0.09375 0  0.375 0.09375 0  0.40625 0.09375 0  0.4375 0.09375 0  0.46875 0.09375 0  0.5 0.09375 0  0.53125 0.09375 0  0.5625 0.09375 0  0.59375 0.09375 0  0.625 0.09375 0  0.65625 0.09375 0  0.6875 0.09375 0  0.71875 0.09375 0  0.75 0.09375 0  0.78125 0.09375 0  0.8125 0.09375 0  0.84375 0.09375 0  0.875 0.09375 0  0.90625 0.09375 0  0.9375 0.09375 0  0.96875 0.09375 0  1 0.09375 0  0 0.125 0  0.03125 0.125 0  0.0625 0.125 0  0.09375 0.125 0  0.125 0.125 0  0.15625 0.125 0  0.1875 0.125 0  0.21875 0.125 0  0.25 0.125 0  0.28125 0.125 0  0.3125 0.125 0  0.34375 0.125 0  0.375 0.125 0  0.40625 0.125 0  0.4375 0.125 0  0.46875 0.125 0  0.5 0.125 0  0.53125 0.125 0  0.5625 0.125 0  0.59375 0.125 0  0.625 0.125 0  0.65625 0.125 0  0.6875 0.125 0  0.71875 0.125 0  0.75 0.125 0  0.78125 0.125 0  0.8125 0.125 0  0.84375 0.125 0  0.875 0.125 0  0.90625 0.125 0  0.9375 0.125 0  0.96875 0.125 0  1 0.125 0  0 0.15625 0  0.03125 0.15625 0  0.0625 0.15625 0  0.09375 0.15625 0  0.125 0.15625 0  0.15625 0.15625 0  0.1875 0.15625 0  0.21875 0.15625 0  0.25 0.15625 0  0.28125 0.15625 0  0.3125 0.15625 0  0.34375 0.15625 0  0.375 0.15625 0  0.40625 0.15625 0  0.4375 0.15625 0  0.46875 0.15625 0  0.5 0.15625 0  0.53125 0.15625 0  0.5625 0.15625 0  0.59375 0.15625 0  0.625 0.15625 0  0.65625 0.15625 0  0.6875 0.15625 0  0.71875 0.15625 0  0.75 0.15625 0  0.78125 0.15625 0  0.8125 0.15625 0  0.84375 0.15625 0  0.875 0.15625 0  0.90625 0.15625 0  0.9375 0.15625 0  0.96875 0.15625 0  1 0.15625 0  0 0.1875 0  0.03125 0.1875 0  0.0625 0.1875 0  0.09375 0.1875 0  0.125 0.1875 0  0.15625 0.1875 0  0.1875 0.1875 0  0.21875 0.1875 0  0.25 0.1875 0  0.28125 0.1875 0  0.3125 0.1875 0  0.34375 0.1875 0  0.375 0.1875 0  0.40625 0.1875 0  0.4375 0.1875 0  0.46875 0.1875 0  0.5 0.1875 0  0.53125 0.1875 0  0.5625 0.1875 0  0.59375 0.1875 0  0.625 0.1875 0  0.65625 0.1875 0  0.6875 0.1875 0  0.71875 0.1875 0  0.75 0.1875 0  0.78125 0.1875 0  0.8125 0.1875 0  0.84375 0.1875 0  0.875 0.1875 0  0.90625 0.1875 0  0.9375 0.1875 0  0.96875 0.1875 0  1 0.1875 0  0 0.21875 0  0.03125 0.21875 0  0.0625 0.21875 0  0.09375 0.21875 0  0.125 0.21875 0  0.15625 0.21875 0  0.1875 0.21875 0  0.21875 0.21875 0  0.25 0.21875 0  0.28125 0.21875 0  0.3125 0.21875 0  0.34375 0.21875 0  0.375 0.21875 0  0.40625 0.21875 0  0.4375 0.21875 0  0.46875 0.21875 0  0.5 0.21875 0  0.53125 0.21875 0  0.5625 0.21875 0  0.59375 0.21875 0  0.625 0.21875 0  0.65625 0.21875 0  0.6875 0.21875 0  0.71875 0.21875 0  0.75 0.21875 0  0.78125 0.21875 0  0.8125 0.21875 0  0.84375 0.21875 0  0.875 0.21875 0  0.90625 0.21875 0  0.9375 0.21875 0  0.96875 0.21875 0  1 0.21875 0  0 0.25 0  0.03125 0.25 0  0.0625 0.25 0  0.09375 0.25 0  0.125 0.25 0  0.15625 0.25 0  0.1875 0.25 0  0.21875 0.25 0  0.25 0.25 0  0.28125 0.25 0  0.3125 0.25 0  0.34375 0.25 0  0.375 0.25 0  0.40625 0.25 0  0.4375 0.25 0  0.46875 0.25 0  0.5 0.25 0  0.53125 0.25 0  0.5625 0.25 0  0.59375 0.25 0  0.625 0.25 0  0.65625 0.25 0  0.6875 0.25 0  0.71875 0.25 0  0.75 0.25 0  0.78125 0.25 0  0.8125 0.25 0  0.84375 0.25 0  0.875 0.25 0  0.90625 0.25 0  0.9375 0.25 0  0.96875 0.25 0  1 0.25 0  0 0.28125 0  0.03125 0.28125 0  0.0625 0.28125 0  0.09375 0.28125 0  0.125 0.28125 0  0.15625 0.28125 0  0.1875 0.28125 0  0.21875 0.28125 0  0.25 0.28125 0  0.28125 0.28125 0  0.3125 0.28125 0  0.34375 0.28125 0  0.375 0.28125 0  0.40625 0.28125 0  0.4375 0.28125 0  0.46875 0.28125 0  0.5 0.28125 0  0.53125 0.28125 0  0.5625 0.28125 0  0.59375 0.28125 0  0.625 0.28125 0  0.65625 0.28125 0  0.6875 0.28125 0  0.71875 0.28125 0  0.75 0.28125 0  0.78125 0.28125 0  0.8125 0.28125 0  0.84375 0.28125 0  0.875 0.28125 0  0.90625 0.28125 0  0.9375 0.28125 0  0.96875 0.28125 0  1 0.28125 0  0 0.3125 0  0.03125 0.3125 0  0.0625 0.3125 0  0.09375 0.3125 0  0.125 0.3125 0  0.15625 0.3125 0  0.1875 0.3125 0  0.21875 0.3125 0  0.25 0.3125 0  0.28125 0.3125 0  0.3125 0.3125 0  0.34375 0.3125 0  0.375 0.3125 0  0.40625 0.3125 0  0.4375 0.3125 0  0.46875 0.3125 0  0.5 0.3125 0  0.53125 0.3125 0  0.5625 0.3125 0  0.59375 0.3125 0  0.625 0.3125 0  0.65625 0.3125 0  0.6875 0.3125 0  0.71875 0.3125 0  0.75 0.3125 0  0.78125 0.3125 0  0.8125 0.3125 0  0.84375 0.3125 0  0.875 0.3125 0  0.90625 0.3125 0  0.9375 0.3125 0  0.96875 0.3125 0  1 0.3125 0  0 0.34375 0  0.03125 0.34375 0  0.0625 0.34375 0  0.09375 0.34375 0  0.125 0.34375 0  0.15625 0.34375 0  0.1875 0.34375 0  0.21875 0.34375 0  0.25 0.34375 0  0.28125 0.34375 0  0.3125 0.34375 0  0.34375 0.34375 0  0.375 0.34375 0  0.40625 0.34375 0  0.4375 0.34375 0  0.46875 0.34375 0  0.5 0.34375 0  0.53125 0.34375 0  0.5625 0.34375 0  0.59375 0.34375 0  0.625 0.34375 0  0.65625 0.34375 0  0.6875 0.34375 0  0.71875 0.34375 0  0.75 0.34375 0  0.78125 0.34375 0  0.8125 0.34375 0  0.84375 0.34375 0  0.875 0.34375 0  0.90625 0.34375 0  0.9375 0.34375 0  0.96875 0.34375 0  1 0.34375 0  0 0.375 0  0.03125 0.375 0  0.0625 0.375 0  0.09375 0.375 0  0.125 0.375 0  0.15625 0.375 0  0.1875 0.375 0  0.21875 0.375 0  0.25 0.375 0  0.28125 0.375 0  0.3125 0.375 0  0.34375 0.375 0  0.375 0.375 0  0.40625 0.375 0  0.4375 0.375 0  0.46875 0.375 0  0.5 0.375 0  0.53125 0.375 0  0.5625 0.375 0  0.59375 0.375 0  0.625 0.375 0  0.65625 0.375 0  0.6875 0.375 0  0.71875 0.375 0  0.75 0.375 0  0.78125 0.375 0  0.8125 0.375 0  0.84375 0.375 0  0.875 0.375 0  0.90625 0.375 0  0.9375 0.375 0  0.96875 0.375 0  1 0.375 0  0 0.40625 0  0.03125 0.40625 0  0.0625 0.40625 0  0.09375 0.40625 0  0.125 0.40625 0  0.15625 0.40625 0  0.1875 0.40625 0  0.21875 0.40625 0  0.25 0.40625 0  0.28125 0.40625 0  0.3125 0.40625 0  0.34375 0.40625 0  0.375 0.40625 0  0.40625 0.40625 0  0.4375 0.40625 0  0.46875 0.40625 0  0.5 0.40625 0  0.53125 0.40625 0  0.5625 0.40625 0  0.59375 0.40625 0  0.625 0.40625 0  0.65625 0.40625 0  0.6875 0.40625 0  0.71875 0.40625 0  0.75 0.40625 0  0.78125 0.40625 0  0.8125 0.40625 0  0.84375 0.40625 0  0.875 0.40625 0  0.90625 0.40625 0  0.9375 0.40625 0  0.96875 0.40625 0  1 0.40625 0  0 0.4375 0  0.03125 0.4375 0  0.0625 0.4375 0  0.09375 0.4375 0  0.125 0.4375 0  0.15625 0.4375 0  0.1875 0.4375 0  0.21875 0.4375 0  0.25 0.4375 0  0.28125 0.4375 0  0.3125 0.4375 0  0.34375 0.4375 0  0.375 0.4375 0  0.40625 0.4375 0  0.4375 0.4375 0  0.46875 0.4375 0  0.5 0.4375 0  0.53125 0.4375 0  0.5625 0.4375 0  0.59375 0.4375 0  0.625 0.4375 0  0.65625 0.4375 0  0.6875 0.4375 0  0.71875 0.4375 0  0.75 0.4375 0  0.78125 0.4375 0  0.8125 0.4375 0  0.84375 0.4375 0  0.875 0.4375 0  0.90625 0.4375 0  0.9375 0.4375 0  0.96875 0.4375 0  1 0.4375 0  0 0.46875 0  0.03125 0.46875 0  0.0625 0.46875 0  0.09375 0.46875 0  0.125 0.46875 0  0.15625 0.46875 0  0.1875 0.46875 0  0.21875 0.46875 0  0.25 0.46875 0  0.28125 0.46875 0  0.3125 0.46875 0  0.34375 0.46875 0  0.375 0.46875 0  0.40625 0.46875 0  0.4375 0.46875 0  0.46875 0.46875 0  0.5 0.46875 0  0.53125 0.46875 0  0.5625 0.46875 0  0.59375 0.46875 0  0.625 0.46875 0  0.65625 0.46875 0  0.6875 0.46875 0  0.71875 0.46875 0  0.75 0.46875 0  0.78125 0.46875 0  0.8125 0.46875 0  0.84375 0.46875 0  0.875 0.46875 0  0.90625 0.46875 0  0.9375 0.46875 0  0.96875 0.46875 0  1 0.46875 0  0 0.5 0  0.03125 0.5 0  0.0625 0.5 0  0.09375 0.5 0  0.125 0.5 0  0.15625 0.5 0  0.1875 0.5 0  0.21875 0.5 0  0.25 0.5 0  0.28125 0.5 0  0.3125 0.5 0  0.34375 0.5 0  0.375 0.5 0  0.40625 0.5 0  0.4375 0.5 0  0.46875 0.5 0  0.5 0.5 0  0.53125 0.5 0  0.5625 0.5 0  0.59375 0.5 0  0.625 0.5 0  0.65625 0.5 0  0.6875 0.5 0  0.71875 0.5 0  0.75 0.5 0  0.78125 0.5 0  0.8125 0.5 0  0.84375 0.5 0  0.875 0.5 0  0.90625 0.5 0  0.9375 0.5 0  0.96875 0.5 0  1 0.5 0  0 0.53125 0  0.03125 0.53125 0  0.0625 0.53125 0  0.09375 0.53125 0  0.125 0.53125 0  0.15625 0.53125 0  0.1875 0.53125 0  0.21875 0.53125 0  0.25 0.53125 0  0.28125 0.53125 0  0.3125 0.53125 0  0.34375 0.53125 0  0.375 0.53125 0  0.40625 0.53125 0  0.4375 0.53125 0  0.46875 0.53125 0  0.5 0.53125 0  0.53125 0.53125 0  0.5625 0.53125 0  0.59375 0.53125 0  0.625 0.53125 0  0.65625 0.53125 0  0.6875 0.53125 0  0.71875 0.53125 0  0.75 0.53125 0  0.78125 0.531
[...]
<PointData  Scalars="phi"> 
<DataArray  type="Float64"  Name="phi"  format="ascii">0.0000000000000000e+00  0.0000000000000000e+00  0.0000000000000000e+00  0.0000000000000000e+00  0.0000000000000000e+00  0.0000000000000000e+00  0.0000000000000000e+00  0.0000000000000000e+00  0.0000000000000000e+00  0.0000000000000000e+00  0.0000000000000000e+00  0.0000000000000000e+00  0.0000000000000000e+00  0.0000000000000000e+00  0.0000000000000000e+00  0.0000000000000000e+00  0.0000000000000000e+00  0.0000000000000000e+00  0.0000000000000000e+00  0.0000000000000000e+00  0.0000000000000000e+00  0.0000000000000000e+00  0.0000000000000000e+00  0.0000000000000000e+00  0.0000000000000000e+00  0.0000000000000000e+00  0.0000000000000000e+00  0.0000000000000000e+00  0.0000000000000000e+00  0.0000000000000000e+00  0.0000000000000000e+00  0.0000000000000000e+00  0.0000000000000000e+00  0.0000000000000000e+00  -2.7705548974977502e-21  6.4333733640001381e-14  2.5349056644078041e-13  6.2165485000518114e-13  1.2141363583065960e-12  2.0651173409189262e-12  3.1958305645882587e-12  4.6132525671349440e-12  6.3093713640181824e-12  8.2610634386912591e-12  1.0430590167488200e-11  1.2766699189683107e-11  1.5206292331384083e-11  1.7676599341438261e-11  2.0097776710914490e-11  2.2385833972776435e-11  2.4455776756320557e-11  2.6224847006403645e-11  2.7615736516899783e-11  2.8559650446348033e-11  2.8999102780572422e-11  2.8890335610735557e-11  2.8205268281976049e-11  2.6932900499522831e-11  2.5080114881072024e-11  2.2671848872443863e-11  1.9750633598166222e-11  1.6375529987079249e-11  1.2620537488032109e-11  8.5726320016412588e-12  4.3297914190629365e-12  0.0000000000000000e+00  0.0000000000000000e+00  -6.4333744660029074e-14  -1.0960895084445578e-20  3.1383406548095497e-13  9.8556591492489357e-13  2.1059725170206689e-12  3.7436952856379825e-12  5.9415956026242324e-12  8.7141404694201721e-12  1.2045933525707066e-11  1.5891459889363603e-11  2.0176064787018416e-11  2.4798137146790995e-11  2.9632421846032537e-11  3.4534339850996079e-11  3.9345155702091000e-11  4.3897798190006631e-11  4.8023113917404588e-11  5.1556315755595497e-11  5.4343379676510635e-11  5.6247144415238262e-11  5.7152878891927999e-11  5.6973101942451803e-11  5.5651467005583311e-11  5.3165560059541693e-11  4.9528501198113327e-11  4.4789287702650500e-11  3.9031868548941468e-11  3.2372997160122642e-11  2.4958972930170465e-11  1.6961456940135921e-11  8.5726320016412830e-12  0.0000000000000000e+00  0.0000000000000000e+00  -2.5349058282830306e-13  -3.1383409808475516e-13  -2.4247785558851743e-20  8.5066238192868917e-13  2.3746329540118038e-12  4.6754561580123599e-12  7.8182858026601202e-12  1.1825969029204754e-11  1.6676838042442212e-11  2.2304310245357955e-11  2.8598326108335651e-11  3.5408581859126055e-11  4.2549443591552030e-11  4.9806363299208755e-11  5.6943558146779004e-11  6.3712664253525745e-11  6.9862037300926159e-11  7.5146345893832174e-11  7.9336090831763813e-11  8.2226684799680303e-11  8.3646742450002845e-11  8.3465259878176201e-11  8.1597404055543106e-11  7.8008685399174145e-11  7.2717348494480921e-11  6.5794884953526830e-11  5.7364646233717675e-11  4.7598610468629859e-11  3.6712432513653398e-11  2.4958972930170581e-11  1.2620537488032206e-11  0.0000000000000000e+00  0.0000000000000000e+00  -6.2165487159876052e-13  -9.8556595789029057e-13  -8.5066244584066258e-13  -4.2116770911406239e-20  1.7488930791726161e-12  4.5350415649844852e-12  8.4467847942544253e-12  1.3516574499820174e-11  1.9718027989502422e-11  2.6965368708943771e-11  3.5115292526118703e-11  4.3971203224703440e-11  5.3289667932659633e-11  6.2788856141900413e-11  7.2158647934532294e-11  8.1072031019657431e-11  8.9197354745507846e-11  9.6210974374783725e-11  1.0180980195633090e-10  1.0572328177136713e-10  1.0772432854762473e-10  1.0763880468548073e-10  1.0535316721664863e-10  1.0081998408656939e-10  9.4061100030216117e-11  8.5168321716510446e-11  7.4301586387138352e-11  6.1684673624396798e-11  4.7598610468630188e-11  3.2372997160123017e-11  1.6375529987079485e-11  0.0000000000000000e+00  0.0000000000000000e+00  -1.2141363848955876e-12  -2.1059725699289071e-12  -2.3746330327179567e-12  -1.7488931829085951e-12  -6.3879063475895370e-20  3.0472051002053604e-12  7.5053107645510465e-12  1.3417872068813107e-11  2.0755730840784998e-11  2.9416280480794186e-11  3.9225723018482681e-11  4.9944248987250990e-11  6.1273956616189774e-11  7.2869219616728117e-11  8.4349116682096615e-11  9.5311454433246836e-11  1.0534785207906471e-10  1.1405931296941482e-10  1.2107168718469821e-10  1.2605043115877615e-10  1.2871409502992962e-10  1.2884601503658029e-10  1.2630375505425309e-10  1.2102592575205508e-10  1.1303610855903612e-10  1.0244372075532011e-10  8.9441773009940268e-11  7.4301586387139024e-11  5.7364646233718586e-11  3.9031868548942276e-11  1.9750633598166690e-11  0.0000000000000000e+00  0.0000000000000000e+00  -2.0651173722451631e-12  -3.7436953479755478e-12  -4.6754562507492029e-12  -4.5350416872172268e-12  -3.0472052507478561e-12  -8.8697314593544020e-20  4.7445676074267915e-12  1.1242851470067057e-11  1.9465162281903732e-11  2.9294840790191014e-11  4.0530862166151195e-11  5.2893890909512465e-11  6.6035570519549933e-11  7.9550705873154276e-11  9.2991882858847808e-11  1.0588597379740621e-10  1.1775190224826731e-10  1.2811898985880158e-10  1.3654518294192714e-10  1.4263445844985903e-10  1.4605273789443329e-10  1.4654169245576947e-10  1.4392990092673866e-10  1.3814092123203529e-10  1.2919795216824234e-10  1.1722489013511290e-10  1.0244372075532130e-10  8.5168321716512204e-11  6.5794884953528640e-11  4.4789287702651941e-11  2.2671848872444658e-11  0.0000000000000000e+00  0.0000000000000000e+00  -3.1958306003483566e-12  -5.9415956737875281e-12  -7.8182859085299764e-12  -8.4467849338011566e-12  -7.5053109364217650e-12  -4.7445678099583577e-12  -1.1561747470279339e-19  6.7993428664760561e-12  1.5625698102017529e-11  2.6351453746401615e-11  3.8752053037449230e-11  5.2512845270866433e-11  6.7239638410195948e-11  8.2472563507473639e-11  9.7702731528433764e-11  1.1239105339760745e-10  1.2598850834974020e-10  1.3795708731420558e-10  1.4779060933521225e-10  1.5503461106896581e-10  1.5930454214079351e-10  1.6030156134575805e-10  1.5782531794693829e-10  1.5178321521701659e-10  1.4219578549061284e-10  1.2919795216824418e-10  1.1303610855903904e-10  9.4061100030219413e-11  7.2717348494483946e-11  4.9528501198115628e-11  2.5080114881073258e-11  0.0000000000000000e+00  0.0000000000000000e+00  -4.6132526069831212e-12  -8.7141405487211648e-12  -1.1825969147184215e-11  -1.3516574655332240e-11  -1.3417872260351409e-11  -1.1242851695779194e-11  -6.7993431241813713e-12  -1.4360526969082626e-19  9.1319073776744851e-12  2.0461136016769745e-11  3.3743620716836755e-11  4.8634034685387057e-11  6.4697484771401926e-11  8.1424908785041594e-11  9.8251596644208830e-11  1.1457813469693721e-10  1.2979297681363272e-10  1.4329578057356500e-10  1.5452061461759009e-10  1.6295814526512186e-10  1.6817594673874524e-10  1.6983614842515993e-10  1.6770973187631141e-10  1.6168691589651874e-10  1.5178321521701925e-10  1.3814092123203968e-10  1.2102592575206030e-10  1.0081998408657466e-10  7.8008685399178746e-11  5.3165560059545073e-11  2.6932900499524615e-11  0.0000000000000000e+00  0.0000000000000000e+00  -6.3093714075695243e-12  -1.2045933612379800e-11  -1.6676838171391863e-11  -1.9718028159478144e-11  -2.0755731050141639e-11  -1.9465162528617652e-11  -1.5625698383706074e-11  -9.1319076916189102e-12  -1.7158580660725423e-19  1.1630582240576191e-11  2.5500511699595348e-11  4.1238749435194842e-11  5.8375252842758603e-11  7.6357741906507728e-11  9.4571893943990991e-11  1.1236420149583512e-10  1.2906662327317430e-10  1.4402208647222760e-10  1.5660986324526414e-10  1.6626984606591661e-10  1.7252478608882630e-10  1.7499963388245050e-10  1.7343723022849550e-10  1.6770973187631497e-10  1.5782531794694439e-10  1.4392990092674626e-10  1.2630375505426118e-10  1.0535316721665632e-10  8.1597404055549594e-11  5.5651467005587990e-11  2.8205268281978498e-11  0.0000000000000000e+00  0.0000000000000000e+00  -8.2610634855253853e-12  -1.5891459982571510e-11  -2.2304310384033256e-11  -2.6965368891742819e-11  -2.9416280705949027e-11  -2.9294841055526424e-11  -2.6351454049356042e-11  -2.0461136354419983e-11  -1.1630582609665515e-11  -1.9848476671275978e-19  1.4160376791707749e-11  3.0458978674318561e-11  4.8396478879428473e-11  6.7383753108758049e-11  8.6763541337693553e-11  1.0583499052076405e-10  1.2388014274987059e-10  1.4019135631920346e-10  1.5409860865802966e-10  1.6499563190191772e-10  1.7236387393485021e-10  1.7579335845196994e-10  1.7499963388245507e-10  1.6983614842516792e-10  1.6030156134576837e-10  1.4654169245578092e-10  1.2884601503659176e-10  1.0763880468549125e-10  8.3465259878184899e-11  5.6973101942457987e-11  2.8890335610738769e-11  0.0000000000000000e+00  0.0000000000000000e+00  -1.0430590217153286e-11  -2.0176064885862312e-11  -2.8598326255398864e-11  -3.5115292719977812e-11  -3.9225723257264082e-11  -4.0530862447549148e-11  -3.8752053358748094e-11  -3.3743621074937136e-11  -2.5500512091043974e-11  -1.4160377212730727e-11  -2.2326958758770409e-19  1.6573806838530921e-11  3.5038506810481154e-11  5.4774802523500025e-11  7.5089546472939616e-11  9.5241724025430865e-11  1.1447051888421757e-10  1.3202438724836166e-10  1.4719002596352993e-10  1.5932012157375427e-10  1.6785881150240916e-10  1.7236387393485574e-10  1.7252478608883630e-10  1.6817594673875845e-10  1.5930454214080866e-10  1.4605273789444914e-10  1.2871409502994495e-10  1.0772432854763843e-10  8.3646742450013999e-11  5.7152878891935864e-11  2.8999102780576483e-11  0.0000000000000000e+00  0.0000000000000000e+00  -1.2766699241700216e-11  -2.4798137250317718e-11  -3.5408582013159092e-11  -4.3971203427753371e-11  -4.9944249237356686e-11  -5.2893891204259975e-11  -5.2512845607412284e-11  -4.8634035060485638e-11  -4.1238749845229680e-11  -3.0458979115337188e-11  -1.6573807306282949e-11  -2.4498903433602854e-19  1.8722870017752695e-11  3.8952201362368196e-11  5.9966288574407753e-11  8.0991489782829110e-11  1.0123159471995623e-10  1.1989827063452331e-10  1.3624141826441642e-10  1.4957827163655155e-10  1.5932012157376079e-10  1.6499563190192966e-10  1.6626984606593277e-10  1.6295814526514089e-10  1.5503461106898636e-10  1.4263445844987971e-10  1.2605043115879569e-10  1.0572328177138431e-10  8.2226684799694120e-11  5.6247144415247936e-11  2.8559650446353006e-11  0.0000000000000000e+00  0.0000000000000000e+00  -1.5206292385251768e-11  -2.9632421953244095e-11  -4.2549443751070050e-11  -5.3289668142943117e-11  -6.1273956875209001e-11  -6.6035570824806101e-11  -6.7239638758745172e-11  -6.4697485159883720e-11  -5.8375253267428218e-11  -4.8396479336193006e-11  -3.5038507294938983e-11  -1.8722870525235898e-11  -2.6280967317514213e-19  2.0471160800778166e-11  4.1947864185906331e-11  6.3631637773467975e-11  8.4698670512353394e-11  1.0433133580131070e-10  1.2174964433453753e-10  1.3624141826442376e-10  1.4719002596354368e-10  1.5409860865804863e-10  1.5660986324528702e-10  1.5452061461761544e-10  1.4779060933523857e-10  1.3654518294195296e-10  1.2107168718472217e-10  1.0180980195635172e-10  7.9336090831780434e-11  5.4343379676522197e-11  2.7615736516905709e-11  0.0000000000000000e+00  0.0000000000000000e+00  -1.7676599396637377e-11  -3.4534339960859261e-11  -4.9806363462674481e-11  -6.2788856357390966e-11  -7.2869219882164831e-11  -7.9550706185977557e-11  -8.2472563864667663e-11  -8.1424909183163403e-11  -7.6357742341720406e-11  -6.7383753576867713e-11  -5.4774803019996286e-11  -3.8952201882467571e-11  -2.0471161339470215e-11  -2.7604780264066173e-19  2.1705094793809833e-11  4.3828792583245263e-11  6.5527722874393092e-11  8.5962772999820435e-11  1.0433133580131873e-10  1.1989827063453859e-10  1.3202438724838314e-10  1.4019135631922988e-10  1.4402208647225751e-10  1.4329578057359690e-10  1.3795708731423786e-10  1.2811898985883273e-10  1.1405931296944333e-10  9.6210974374808282e-11  7.5146345893851651e-11  5.1556315755608991e-11  2.6224847006410544e-11  0.0000000000000000e+00  0.0000000000000000e+00  -2.0097776766913202e-11  -3.9345155813547280e-11  -5.6943558312617485e-11  -7.2158648153153764e-11  -8.4349116951393483e-11  -9.2991883176224382e-11  -9.7702731890831375e-11  -9.8251597048135237e-11  -9.4571894385554116e-11  -8.6763541812638960e-11  -7.5089546976691575e-11  -5.9966289102113363e-11  -4.1947864732482213e-11  -2.1705095353991181e-11  -2.8419564953147452e-19  2.2343287209338095e-11  4.4470045538338962e-11  6.5527722874401609e-11  8.4698670512369847e-11  1.0123159471997976e-10  1.1447051888424702e-10  1.2388014274990461e-10  1.2906662327321137e-10  1.2979297681367121e-10  1.2598850834977848e-10  1.1775190224830373e-10  1.0534785207909774e-10  8.9197354745536100e-11  6.9862037300948442e-11  4.8023113917419968e-11  2.4455776756328405e-11  0.0000000000000000e+00  0.0000000000000000e+00  -2.2385834029035328e-11  -4.3897798301982394e-11  -6.3712664420139527e-11  -8.1072031239303946e-11  -9.5311454703809872e-11  -1.0588597411627903e-10  -1.1239105376171795e-10  -1.1457813510277755e-10  -1.1236420193949553e-10  -1.0583499099797058e-10  -9.5241724531586534e-11  -8.0991490313058307e-11  -6.3631638322663375e-11  -4.3828793146117080e-11  -2.2343287780465078e-11  -2.8694080844649375e-19  2.2343287209346861e-11  4.3828792583262459e-11  6.3631637773492945e-11  8.0991489782860892e-11  9.5241724025468231e-11  1.0583499052080556e-10  1.1236420149587919e-10  1.1457813469698214e-10  1.1239105339765151e-10  1.0588597379744771e-10  9.5311454433284188e-11  8.1072031019689187e-11  6.3712664253550689e-11  4.3897798190023808e-11  2.2385833972785191e-11  0.0000000000000000e+00  0.0000000000000000e+00  -2.4455776812297824e-11  -4.8023114028821448e-11  -6.9862037466710667e-11  -8.9197354964064086e-11  -1.0534785234828824e-10  -1.1775190256556544e-10  -1.2598850871205701e-10  -1.2979297721747851e-10  -1.2906662371465931e-10  -1.2388014322474247e-10  -1.1447051938790241e-10  -1.0123159524760261e-10  -8.4698671058879250e-11  -6.5527723434534613e-11  -4.4470046106701359e-11  -2.2343287780456315e-11  -2.8417820190406208e-19  2.1705094793835544e-11  4.1947864185939567e-11  5.9966288574447471e-11  7.5089546472984529e-11  8.6763541337742149e-11  9.4571893944041630e-11  9.8251596644259741e-11  9.7702731528483175e-11  9.2991882858893975e-11  8.4349116682137922e-11  7.2158647934567255e-11  5.6943558146806391e-11  3.9345155702109818e-11  2.0097776710924067e-11  0.0000000000000000e+00  0.0000000000000000e+00  -2.6224847061560320e-11  -5.1556315865380692e-11  -7.5146346057191142e-11  -9.6210974590145316e-11  -1.1405931323470659e-10  -1.2811899017146985e-10  -1.3795708767123999e-10  -1.4329578097152767e-10  -1.4402208690728611e-10  -1.4019135678716807e-10  -1.3202438774472547e-10  -1.1989827115450590e-10  -1.0433133633990415e-10  -8.5962773551837594e-11  -6.5527723434526095e-11  -4.3828793146099890e-11  -2.1705095353965471e-11  -2.7601406936649890e-19  2.0471160800819109e-11  3.8952201362415255e-11  5.4774802523551847e-11  6.7383753108813069e-11  7.6357741906564247e-11  8.1424908785097829e-11  8.2472563507527780e-11  7.9550705873204553e-11  7.2869219616772875e-11  6.2788856141938166e-11  4.9806363299238236e-11  3.4534339851016300e-11  1.7676599341448543e-11  0.0000000000000000e+00  0.0000000000000000e+00  -2.7615736570704919e-11  -5.4343379783607344e-11  -7.9336090991124707e-11  -1.0180980216642467e-10  -1.2107168744350436e-10  -1.3654518324695552e-10  -1.4779060968352710e-10  -1.5452061500583827e-10  -1.5660986366970762e-10  -1.5409860911458148e-10  -1.4719002644779364e-10  -1.3624141877172859e-10  -1.2174964486001257e-10  -1.0433133633989613e-10  -8.4698671058862797e-11  -6.3631638322638418e-11  -4.1947864732448983e-11  -2.0471161339429266e-11  -2.6276188352997145e-19  1.8722870017806181e-11  3.5038506810538940e-11  4.8396478879488979e-11  5.8375252842820099e-11  6.4697484771462607e-11  6.7239638410253980e-11  6.6035570519603558e-11  6.1273956616237324e-11  5.3289667932699616e-11  4.2549443591583179e-11  2.9632421846053870e-11  1.5206292331394923e-11  0.0000000000000000e+00  0.0000000000000000e+00  -2.8559650498283828e-11  -5.6247144518615812e-11  -8.2226684953509441e-11  -1.0572328197417110e-10  -1.2605043140860581e-10  -1.4263445874431170e-10  -1.5503461140520847e-10  -1.6295814563991846e-10  -1.6626984647565932e-10  -1.6499563234266175e-10  -1.5932012204125597e-10  -1.4957827212630924e-10  -1.3624141877172125e-10  -1.1989827115449065e-10  -1.0123159524757910e-10  -8.0991490313026538e-11  -5.9966289102073633e-11  -3.8952201882420505e-11  -1.8722870525182412e-11  -2.4493030156050493e-19  1.6573806838593489e-11  3.0458978674383372e-11  4.1238749435260163e-11  4.8634034685451086e-11  5.2512845270927354e-11  5.2893890909568520e-11  4.9944248987300530e-11  4.3971203224744993e-11  3.5408581859158373e-11  2.4798137146813102e-11  1.2766699189694330e-11  0.0000000000000000e+00  0.0000000000000000e+00  -2.8999102830139200e-11  -5.7152878990591782e-11  -8.3646742596820179e-11  -1.0772432874118757e-10  -1.2871409526837888e-10  -1.4605273817547685e-10  -1.5930454246172830e-10  -1.6817594709648333e-10  -1.7252478647992479e-10  -1.7236387435554437e-10  -1.6785881194864882e-10  -1.5932012204124946e-10  -1.4719002644777994e-10  -1.3202438774470402e-10  -1.1447051938787297e-10  -9.5241724531549181e-11  -7.5089546976646675e-11  -5.4774803019944464e-11  -3.5038507294881190e-11  -1.6573807306220377e-11  -2.2320364501124018e-19  1.4160376791775478e-11  2.5500511699663157e-11  3.3743620716902871e-11  3.8752053037511876e-11  4.0530862166208639e-11  3.9225723018533314e-11  3.5115292526161083e-11  2.8598326108368560e-11  2.0176064787040905e-11  1.0430590167499611e-11  0.0000000000000000e+00  0.0000000000000000e+00  -2.8890335657456605e-11  -5.6973102035452876e-11  -8.3465260016569605e-11  -1.0763880486794061e-10  -1.2884601526135542e-10  -1.4654169272070028e-10  -1.6030156164829735e-10  -1.6983614876239754e-10  -1.7499963425114149e-10  -1.7579335884856580e-10  -1.7236387435553884e-10  -1.6499563234264983e-10  -1.5409860911456253e-10  -1.4019135678714165e-10  -1.2388014322470845e-10  -1.0583499099792908e-10  -8.6763541812590350e-11  -6.7383753576812692e-11  -4.8396479336132499e-11  -3.0458979115272384e-11  -1.4160377212662997e-11  -1.9841566566725793e-19  1.1630582240645002e-11  2.0461136016836550e-11  2.6351453746464690e-11  2.9294840790248690e-11  2.9416280480844909e-11  2.6965368708986154e-11  2.2304310245390829e-11  1.5891459889386047e-11  8.2610634387026426e-12  0.0000000000000000e+00  0.0000000000000000e+00  -2.8205268325402204e-11  -5.5651467092027569e-11  -8.1597404184181995e-11  -1.0535316738625118e-10  -1.2630375526319268e-10  -1.4392990117300889e-10  -1.5782531822817225e-10  -1.6770973218980467e-10  -1.7343723057123215e-10  -1.7499963425113694e-10  -1.7252478647991481e-10  -1.6626984647564319e-10  -1.5660986366968477e-10  -1.4402208690725621e-10  -1.2906662371462224e-10  -1.1236420193945147e-10  -9.4571894385503477e-11  -7.6357742341663873e-11  -5.8375253267366723e-11  -4.1238749845164365e-11  -2.5500512090976165e-11  -1.1630582609596704e-11  -1.7151757994703818e-19  9.1319073777404866e-12  1.5625698102079665e-11  1.9465162281960416e-11  2.0755730840834762e-11  1.9718027989543946e-11  1.6676838042474385e-11  1.2045933525729015e-11  6.3093713640293105e-12  0.0000000000000000e+00  0.0000000000000000e+00  -2.6932900539236832e-11  -5.3165560138598498e-11  -7.8008685516822338e-11  -1.0081998424168460e-10  -1.2102592594315083e-10  -1.3814092145727755e-10  -1.5178321547424138e-10  -1.6168691618325314e-10  -1.6770973218980112e-10  -1.6983614876238955e-10  -1.6817594709647015e-10  -1.6295814563989946e-10  -1.5452061500581299e-10  -1.4329578097149580e-10  -1.2979297721744002e-10  -1.1457813510273264e-10  -9.8251597048084327e-11  -8.1424909183107155e-11  -6.4697485159823039e-11  -4.8634035060421609e-11  -3.3743621074871020e-11  -2.0461136354353178e-11  -9.1319076915529086e-12  -1.4354160882370383e-19  6.7993428