<?xml version="1.0"?>
<VTKFile type="UnstructuredGrid"  version="0.1"  >
<UnstructuredGrid>
<Piece  NumberOfPoints="1089" NumberOfCells="2048">
<Points>
<DataArray  type="Float64"  NumberOfComponents="3"  format="ascii">0 0 0  0.03125 0 0  0.0625 0 0  0.09375 0 0  0.125 0 0  0.15625 0 0  0.1875 0 0  0.21875 0 0  0.25 0 0  0.28125 0 0  0.3125 0 0  0.34375 0 0  0.375 0 0  0.40625 0 0  0.4375 0 0  0.46875 0 0  0.5 0 0  0.53125 0 0  0.5625 0 0  0.59375 0 0  0.625 0 0  0.65625 0 0  0.6875 0 0  0.71875 0 0  0.75 0 0  0.78125 0 0  0.8125 0 0  0.84375 0 0  0.875 0 0  0.90625 0 0  0.9375 0 0  0.96875 0 0  1 0 0  0 0.03125 0  0.03125 0.03125 0  0.0625 0.03125 0  0.09375 0.03125 0  0.125 0.03125 0  0.15625 0.03125 0  0.1875 0.03125 0  0.21875 0.03125 0  0.25 0.03125 0  0.28125 0.03125 0  0.3125 0.03125 0  0.34375 0.03125 0  0.375 0.03125 0  0.40625 0.03125 0  0.4375 0.03125 0  0.46875 0.03125 0  0.5 0.03125 0  0.53125 0.03125 0  0.5625 0.03125 0  0.59375 0.03125 0  0.625 0.03125 0  0.65625 0.03125 0  0.6875 0.03125 0  0.71875 0.03125 0  0.75 0.03125 0  0.78125 0.03125 0  0.8125 0.03125 0  0.84375 0.03125 0  0.875 0.03125 0  0.90625 0.03125 0  0.9375 0.03125 0  0.96875 0.03125 0  1 0.03125 0  0 0.0625 0  0.03125 0.0625 0  0.0625 0.0625 0  0.09375 0.0625 0  0.125 0.0625 0  0.15625 0.0625 0  0.1875 0.0625 0  0.21875 0.0625 0  0.25 0.0625 0  0.28125 0.0625 0  0.3125 0.0625 0  0.34375 0.0625 0  0.375 0.0625 0  0.40625 0.0625 0  0.4375 0.0625 0  0.46875 0.0625 0  0.5 0.0625 0  0.53125 0.0625 0  0.5625 0.0625 0  0.59375 0.0625 0  0.625 0.0625 0  0.65625 0.0625 0  0.6875 0.0625 0  0.71875 0.0625 0  0.75 0.0625 0  0.78125 0.0625 0  0.8125 0.0625 0  0.84375 0.0625 0  0.875 0.0625 0  0.90625 0.0625 0  0.9375 0.0625 0  0.96875 0.0625 0  1 0.0625 0  0 0.09375 0  0.03125 0.09375 0  0.0625 0.09375 0  0.09375 0.09375 0  0.125 0.09375 0  0.15625 0.09375 0  0.1875 0.09375 0  0.21875 0.09375 0  0.25 0.09375 0  0.28125 0.09375 0  0.3125 0.09375 0  0.34375 0.09375 0  0.375 0.09375 0  0.40625 0.09375 0  0.4375 0.09375 0  0.46875 0.09375 0  0.5 0.09375 0  0.53125 0.09375 0  0.5625 0.09375 0  0.59375 0.09375 0  0.625 0.09375 0  0.65625 0.09375 0  0.6875 0.09375 0  0.71875 0.09375 0  0.75 0.09375 0  0.78125 0.09375 0  0.8125 0.09375 0  0.84375 0.09375 0  0.875 0.09375 0  0.90625 0.09375 0  0.9375 0.09375 0  0.96875 0.09375 0  1 0.09375 0  0 0.125 0  0.03125 0.125 0  0.0625 0.125 0  0.09375 0.125 0  0.125 0.125 0  0.15625 0.125 0  0.1875 0.125 0  0.21875 0.125 0  0.25 0.125 0  0.28125 0.125 0  0.3125 0.125 0  0.34375 0.125 0  0.375 0.125 0  0.40625 0.125 0  0.4375 0.125 0  0.46875 0.125 0  0.5 0.125 0  0.53125 0.125 0  0.5625 0.125 0  0.59375 0.125 0  0.625 0.125 0  0.65625 0.125 0  0.6875 0.125 0  0.71875 0.125 0  0.75 0.125 0  0.78125 0.125 0  0.8125 0.125 0  0.84375 0.125 0  0.875 0.125 0  0.90625 0.125 0  0.9375 0.125 0  0.96875 0.125 0  1 0.125 0  0 0.15625 0  0.03125 0.15625 0  0.0625 0.15625 0  0.09375 0.15625 0  0.125 0.15625 0  0.15625 0.15625 0  0.1875 0.15625 0  0.21875 0.15625 0  0.25 0.15625 0  0.28125 0.15625 0  0.3125 0.15625 0  0.34375 0.15625 0  0.375 0.15625 0  0.40625 0.15625 0  0.4375 0.15625 0  0.46875 0.15625 0  0.5 0.15625 0  0.53125 0.15625 0  0.5625 0.15625 0  0.59375 0.15625 0  0.625 0.15625 0  0.65625 0.15625 0  0.6875 0.15625 0  0.71875 0.15625 0  0.75 0.15625 0  0.78125 0.15625 0  0.8125 0.15625 0  0.84375 0.15625 0  0.875 0.15625 0  0.90625 0.15625 0  0.9375 0.15625 0  0.96875 0.15625 0  1 0.15625 0  0 0.1875 0  0.03125 0.1875 0  0.0625 0.1875 0  0.09375 0.1875 0  0.125 0.1875 0  0.15625 0.1875 0  0.1875 0.1875 0  0.21875 0.1875 0  0.25 0.1875 0  0.28125 0.1875 0  0.3125 0.1875 0  0.34375 0.1875 0  0.375 0.1875 0  0.40625 0.1875 0  0.4375 0.1875 0  0.46875 0.1875 0  0.5 0.1875 0  0.53125 0.1875 0  0.5625 0.1875 0  0.59375 0.1875 0  0.625 0.1875 0  0.65625 0.1875 0  0.6875 0.1875 0  0.71875 0.1875 0  0.75 0.1875 0  0.78125 0.1875 0  0.8125 0.1875 0  0.84375 0.1875 0  0.875 0.1875 0  0.90625 0.1875 0  0.9375 0.1875 0  0.96875 0.1875 0  1 0.1875 0  0 0.21875 0  0.03125 0.21875 0  0.0625 0.21875 0  0.09375 0.21875 0  0.125 0.21875 0  0.15625 0.21875 0  0.1875 0.21875 0  0.21875 0.21875 0  0.25 0.21875 0  0.28125 0.21875 0  0.3125 0.21875 0  0.34375 0.21875 0  0.375 0.21875 0  0.40625 0.21875 0  0.4375 0.21875 0  0.46875 0.21875 0  0.5 0.21875 0  0.53125 0.21875 0  0.5625 0.21875 0  0.59375 0.21875 0  0.625 0.21875 0  0.65625 0.21875 0  0.6875 0.21875 0  0.71875 0.21875 0  0.75 0.21875 0  0.78125 0.21875 0  0.8125 0.21875 0  0.84375 0.21875 0  0.875 0.21875 0  0.90625 0.21875 0  0.9375 0.21875 0  0.96875 0.21875 0  1 0.21875 0  0 0.25 0  0.03125 0.25 0  0.0625 0.25 0  0.09375 0.25 0  0.125 0.25 0  0.15625 0.25 0  0.1875 0.25 0  0.21875 0.25 0  0.25 0.25 0  0.28125 0.25 0  0.3125 0.25 0  0.34375 0.25 0  0.375 0.25 0  0.40625 0.25 0  0.4375 0.25 0  0.46875 0.25 0  0.5 0.25 0  0.53125 0.25 0  0.5625 0.25 0  0.59375 0.25 0  0.625 0.25 0  0.65625 0.25 0  0.6875 0.25 0  0.71875 0.25 0  0.75 0.25 0  0.78125 0.25 0  0.8125 0.25 0  0.84375 0.25 0  0.875 0.25 0  0.90625 0.25 0  0.9375 0.25 0  0.96875 0.25 0  1 0.25 0  0 0.28125 0  0.03125 0.28125 0  0.0625 0.28125 0  0.09375 0.28125 0  0.125 0.28125 0  0.15625 0.28125 0  0.1875 0.28125 0  0.21875 0.28125 0  0.25 0.28125 0  0.28125 0.28125 0  0.3125 0.28125 0  0.34375 0.28125 0  0.375 0.28125 0  0.40625 0.28125 0  0.4375 0.28125 0  0.46875 0.28125 0  0.5 0.28125 0  0.53125 0.28125 0  0.5625 0.28125 0  0.59375 0.28125 0  0.625 0.28125 0  0.65625 0.28125 0  0.6875 0.28125 0  0.71875 0.28125 0  0.75 0.28125 0  0.78125 0.28125 0  0.8125 0.28125 0  0.84375 0.28125 0  0.875 0.28125 0  0.90625 0.28125 0  0.9375 0.28125 0  0.96875 0.28125 0  1 0.28125 0  0 0.3125 0  0.03125 0.3125 0  0.0625 0.3125 0  0.09375 0.3125 0  0.125 0.3125 0  0.15625 0.3125 0  0.1875 0.3125 0  0.21875 0.3125 0  0.25 0.3125 0  0.28125 0.3125 0  0.3125 0.3125 0  0.34375 0.3125 0  0.375 0.3125 0  0.40625 0.3125 0  0.4375 0.3125 0  0.46875 0.3125 0  0.5 0.3125 0  0.53125 0.3125 0  0.5625 0.3125 0  0.59375 0.3125 0  0.625 0.3125 0  0.65625 0.3125 0  0.6875 0.3125 0  0.71875 0.3125 0  0.75 0.3125 0  0.78125 0.3125 0  0.8125 0.3125 0  0.84375 0.3125 0  0.875 0.3125 0  0.90625 0.3125 0  0.9375 0.3125 0  0.96875 0.3125 0  1 0.3125 0  0 0.34375 0  0.03125 0.34375 0  0.0625 0.34375 0  0.09375 0.34375 0  0.125 0.34375 0  0.15625 0.34375 0  0.1875 0.34375 0  0.21875 0.34375 0  0.25 0.34375 0  0.28125 0.34375 0  0.3125 0.34375 0  0.34375 0.34375 0  0.375 0.34375 0  0.40625 0.34375 0  0.4375 0.34375 0  0.46875 0.34375 0  0.5 0.34375 0  0.53125 0.34375 0  0.5625 0.34375 0  0.59375 0.34375 0  0.625 0.34375 0  0.65625 0.34375 0  0.6875 0.34375 0  0.71875 0.34375 0  0.75 0.34375 0  0.78125 0.34375 0  0.8125 0.34375 0  0.84375 0.34375 0  0.875 0.34375 0  0.90625 0.34375 0  0.9375 0.34375 0  0.96875 0.34375 0  1 0.34375 0  0 0.375 0  0.03125 0.375 0  0.0625 0.375 0  0.09375 0.375 0  0.125 0.375 0  0.15625 0.375 0  0.1875 0.375 0  0.21875 0.375 0  0.25 0.375 0  0.28125 0.375 0  0.3125 0.375 0  0.34375 0.375 0  0.375 0.375 0  0.40625 0.375 0  0.4375 0.375 0  0.46875 0.375 0  0.5 0.375 0  0.53125 0.375 0  0.5625 0.375 0  0.59375 0.375 0  0.625 0.375 0  0.65625 0.375 0  0.6875 0.375 0  0.71875 0.375 0  0.75 0.375 0  0.78125 0.375 0  0.8125 0.375 0  0.84375 0.375 0  0.875 0.375 0  0.90625 0.375 0  0.9375 0.375 0  0.96875 0.375 0  1 0.375 0  0 0.40625 0  0.03125 0.40625 0  0.0625 0.40625 0  0.09375 0.40625 0  0.125 0.40625 0  0.15625 0.40625 0  0.1875 0.40625 0  0.21875 0.40625 0  0.25 0.40625 0  0.28125 0.40625 0  0.3125 0.40625 0  0.34375 0.40625 0  0.375 0.40625 0  0.40625 0.40625 0  0.4375 0.40625 0  0.46875 0.40625 0  0.5 0.40625 0  0.53125 0.40625 0  0.5625 0.40625 0  0.59375 0.40625 0  0.625 0.40625 0  0.65625 0.40625 0  0.6875 0.40625 0  0.71875 0.40625 0  0.75 0.40625 0  0.78125 0.40625 0  0.8125 0.40625 0  0.84375 0.40625 0  0.875 0.40625 0  0.90625 0.40625 0  0.9375 0.40625 0  0.96875 0.40625 0  1 0.40625 0  0 0.4375 0  0.03125 0.4375 0  0.0625 0.4375 0  0.09375 0.4375 0  0.125 0.4375 0  0.15625 0.4375 0  0.1875 0.4375 0  0.21875 0.4375 0  0.25 0.4375 0  0.28125 0.4375 0  0.3125 0.4375 0  0.34375 0.4375 0  0.375 0.4375 0  0.40625 0.4375 0  0.4375 0.4375 0  0.46875 0.4375 0  0.5 0.4375 0  0.53125 0.4375 0  0.5625 0.4375 0  0.59375 0.4375 0  0.625 0.4375 0  0.65625 0.4375 0  0.6875 0.4375 0  0.71875 0.4375 0  0.75 0.4375 0  0.78125 0.4375 0  0.8125 0.4375 0  0.84375 0.4375 0  0.875 0.4375 0  0.90625 0.4375 0  0.9375 0.4375 0  0.96875 0.4375 0  1 0.4375 0  0 0.46875 0  0.03125 0.46875 0  0.0625 0.46875 0  0.09375 0.46875 0  0.125 0.46875 0  0.15625 0.46875 0  0.1875 0.46875 0  0.21875 0.46875 0  0.25 0.46875 0  0.28125 0.46875 0  0.3125 0.46875 0  0.34375 0.46875 0  0.375 0.46875 0  0.40625 0.46875 0  0.4375 0.46875 0  0.46875 0.46875 0  0.5 0.46875 0  0.53125 0.46875 0  0.5625 0.46875 0  0.59375 0.46875 0  0.625 0.46875 0  0.65625 0.46875 0  0.6875 0.46875 0  0.71875 0.46875 0  0.75 0.46875 0  0.78125 0.46875 0  0.8125 0.46875 0  0.84375 0.46875 0  0.875 0.46875 0  0.90625 0.46875 0  0.9375 0.46875 0  0.96875 0.46875 0  1 0.46875 0  0 0.5 0  0.03125 0.5 0  0.0625 0.5 0  0.09375 0.5 0  0.125 0.5 0  0.15625 0.5 0  0.1875 0.5 0  0.21875 0.5 0  0.25 0.5 0  0.28125 0.5 0  0.3125 0.5 0  0.34375 0.5 0  0.375 0.5 0  0.40625 0.5 0  0.4375 0.5 0  0.46875 0.5 0  0.5 0.5 0  0.53125 0.5 0  0.5625 0.5 0  0.59375 0.5 0  0.625 0.5 0  0.65625 0.5 0  0.6875 0.5 0  0.71875 0.5 0  0.75 0.5 0  0.78125 0.5 0  0.8125 0.5 0  0.84375 0.5 0  0.875 0.5 0  0.90625 0.5 0  0.9375 0.5 0  0.96875 0.5 0  1 0.5 0  0 0.53125 0  0.03125 0.53125 0  0.0625 0.53125 0  0.09375 0.53125 0  0.125 0.53125 0  0.15625 0.53125 0  0.1875 0.53125 0  0.21875 0.53125 0  0.25 0.53125 0  0.28125 0.53125 0  0.3125 0.53125 0  0.34375 0.53125 0  0.375 0.53125 0  0.40625 0.53125 0  0.4375 0.53125 0  0.46875 0.53125 0  0.5 0.53125 0  0.53125 0.53125 0  0.5625 0.53125 0  0.59375 0.53125 0  0.625 0.53125 0  0.65625 0.53125 0  0.6875 0.53125 0  0.71875 0.53125 0  0.75 0.53125 0  0.78125 0.531
[...]
<PointData  Scalars="phi"> 
<DataArray  type="Float64"  Name="phi"  format="ascii">0.0000000000000000e+00  0.0000000000000000e+00  0.0000000000000000e+00  0.0000000000000000e+00  0.0000000000000000e+00  0.0000000000000000e+00  0.0000000000000000e+00  0.0000000000000000e+00  0.0000000000000000e+00  0.0000000000000000e+00  0.0000000000000000e+00  0.0000000000000000e+00  0.0000000000000000e+00  0.0000000000000000e+00  0.0000000000000000e+00  0.0000000000000000e+00  0.0000000000000000e+00  0.0000000000000000e+00  0.0000000000000000e+00  0.0000000000000000e+00  0.0000000000000000e+00  0.0000000000000000e+00  0.0000000000000000e+00  0.0000000000000000e+00  0.0000000000000000e+00  0.0000000000000000e+00  0.0000000000000000e+00  0.0000000000000000e+00  0.0000000000000000e+00  0.0000000000000000e+00  0.0000000000000000e+00  0.0000000000000000e+00  0.0000000000000000e+00  0.0000000000000000e+00  -3.6290192001922533e-17  2.3215925526542203e-06  9.1476391396851642e-06  2.2433474476425713e-05  4.3814178929026432e-05  7.4523277192919854e-05  1.1532698981972160e-04  1.6647707705860009e-04  2.2768441280039952e-04  2.9811454556510138e-04  3.7640561283939442e-04  4.6070808589116359e-04  5.4874495964407405e-04  6.3789019564009224e-04  7.2526250486692231e-04  8.0783094826589001e-04  8.8252835920469923e-04  9.4636827230711409e-04  9.9656088928115703e-04  1.0306236310991420e-03  1.0464820170276452e-03  1.0425569683966665e-03  1.0178351469480663e-03  9.7191958830951473e-04  9.0505866346394300e-04  8.1815228261882824e-04  7.1273525384404912e-04  5.9093889135229281e-04  4.5543359129463477e-04  3.0935802718616551e-04  1.5624789810962279e-04  0.0000000000000000e+00  0.0000000000000000e+00  -2.3215925527974756e-06  -1.4145311631621732e-16  1.1325237374222786e-05  3.5565825465722966e-05  7.5997606197806170e-05  1.3509762190073326e-04  2.1441259853986305e-04  3.1446460250137017e-04  4.3469802989812268e-04  5.7347039868494375e-04  7.2808766420894987e-04  8.9488301787279067e-04  1.0693364152359244e-03  1.2462304756128370e-03  1.4198369595799000e-03  1.5841268179872777e-03  1.7329958623838846e-03  1.8604974685598047e-03  1.9610734171232984e-03  2.0297740102125832e-03  2.0624589813978793e-03  2.0559714238714394e-03  2.0082779760009451e-03  1.9185697896352261e-03  1.7873203257064607e-03  1.6162977345675711e-03  1.4085314579962817e-03  1.1682347421266761e-03  9.0068704977443355e-04  6.1208306343031929e-04  3.0935802718616643e-04  0.0000000000000000e+00  0.0000000000000000e+00  -9.1476391398957179e-06  -1.1325237374638711e-05  -3.0578302311538907e-16  3.0697602082910717e-05  8.5692676123907627e-05  1.6872180053673037e-04  2.8213616147924160e-04  4.2676023695522626e-04  6.0181210766729908e-04  8.0488902719446232e-04  1.0320193099515491e-03  1.2777789883127999e-03  1.5354691465943792e-03  1.7973474545584772e-03  2.0549052869983345e-03  2.2991800102550109e-03  2.5210906104849856e-03  2.7117838864373885e-03  2.8629779685721787e-03  2.9672899751664659e-03  3.0185351740442566e-03  3.0119860661804191e-03  2.9445813072467159e-03  2.8150762819009641e-03  2.6241293770844832e-03  2.3743204893877374e-03  2.0701009662500709e-03  1.7176769315432753e-03  1.3248306580376564e-03  9.0068704977443810e-04  4.5543359129463840e-04  0.0000000000000000e+00  0.0000000000000000e+00  -2.2433474476698766e-05  -3.5565825466262424e-05  -3.0697602083703919e-05  -5.1433974355404137e-16  6.3111787409552206e-05  1.6365470132026556e-04  3.0481661868007415e-04  4.8776861553837388e-04  7.1155862750918062e-04  9.7309126152834784e-04  1.2671951439088558e-03  1.5867757653331260e-03  1.9230484359885965e-03  2.2658428219660231e-03  2.6039677178201202e-03  2.9256223280544123e-03  3.2188384740205714e-03  3.4719368841301772e-03  3.6739801134362850e-03  3.8152046980074999e-03  3.8874158790156558e-03  3.8843296045826580e-03  3.8018484833094316e-03  3.6382608487215040e-03  3.3943550052896337e-03  3.0734439530330088e-03  2.6812992997316521e-03  2.2259965127652721e-03  1.7176769315432876e-03  1.1682347421266904e-03  5.9093889135230170e-04  0.0000000000000000e+00  0.0000000000000000e+00  -4.3814178929355894e-05  -7.5997606198457098e-05  -8.5692676124864638e-05  -6.3111787410793062e-05  -7.4813871054408378e-16  1.0996358886373259e-04  2.7084192534946791e-04  4.8420677085187706e-04  7.4900590306025555e-04  1.0615365880591509e-03  1.4155270300666176e-03  1.8023232960260982e-03  2.2111750931355489e-03  2.6296099080874405e-03  3.0438815467272624e-03  3.4394761759414150e-03  3.8016566793137403e-03  4.1160245831391492e-03  4.3690780503042410e-03  4.5487445064196124e-03  4.6448673538513488e-03  4.6496279117355082e-03  4.5578861299205541e-03  4.3674266698434990e-03  4.0791005075394432e-03  3.6968561519284686e-03  3.2276587217489510e-03  2.6812992997316777e-03  2.0701009662501052e-03  1.4085314579963121e-03  7.1273525384406657e-04  0.0000000000000000e+00  0.0000000000000000e+00  -7.4523277193298525e-05  -1.3509762190148136e-04  -1.6872180053783008e-04  -1.6365470132169099e-04  -1.0996358886545063e-04  -9.8573433459065056e-16  1.7121580688243688e-04  4.0571744859065631e-04  7.0243353914495321e-04  1.0571542307081989e-03  1.4626251999381344e-03  1.9087661495305777e-03  2.3830060418214612e-03  2.8707227206489169e-03  3.3557704857474419e-03  3.8210757189636644e-03  4.2492779575532529e-03  4.6233919714858528e-03  4.9274655005424658e-03  5.1472073785246613e-03  5.2705618141746019e-03  5.2882065720344677e-03  5.1939556258771644e-03  4.9850504332197010e-03  4.6623281621534507e-03  4.2302598252922739e-03  3.6968561519285128e-03  3.0734439530330747e-03  2.3743204893878051e-03  1.6162977345676251e-03  8.1815228261885805e-04  0.0000000000000000e+00  0.0000000000000000e+00  -1.1532698982014136e-04  -2.1441259854069222e-04  -2.8213616148046019e-04  -3.0481661868165302e-04  -2.7084192535136982e-04  -1.7121580688461764e-04  -1.2050032748153283e-15  2.4536587286636669e-04  5.6387993533364711e-04  9.5093709663089698e-04  1.3984338435181895e-03  1.8950154694037040e-03  2.4264568832474357e-03  2.9761629307949828e-03  3.5257694844855877e-03  4.0558225968344982e-03  4.5465099184156515e-03  4.9784164755597524e-03  5.3332758663327089e-03  5.5946880069171973e-03  5.7487757420654709e-03  5.7847548779031395e-03  5.6953954168471547e-03  5.4773558482819574e-03  5.1313771164778850e-03  4.6623281621535201e-03  4.0791005075395525e-03  3.3943550052897569e-03  2.6241293770845968e-03  1.7873203257065468e-03  9.0505866346398919e-04  0.0000000000000000e+00  0.0000000000000000e+00  -1.6647707705905217e-04  -3.1446460250226306e-04  -4.2676023695653798e-04  -4.8776861554007260e-04  -4.8420677085392186e-04  -4.0571744859299879e-04  -2.4536587286895229e-04  -1.3850621466048041e-15  3.2954043717383941e-04  7.3837494938579380e-04  1.2176960333539358e-03  1.7550419835949825e-03  2.3347189400260986e-03  2.9383565264718913e-03  3.5455762177840511e-03  4.1347471513878574e-03  4.6838006435896097e-03  5.1710723156131854e-03  5.5761395704506164e-03  5.8806222347245283e-03  6.0689154877363802e-03  6.1288266929350379e-03  6.0520913295537141e-03  5.8347477561671874e-03  5.4773558482820563e-03  4.9850504332198658e-03  4.3674266698436950e-03  3.6382608487217014e-03  2.8150762819011367e-03  1.9185697896353527e-03  9.7191958830958162e-04  0.0000000000000000e+00  0.0000000000000000e+00  -2.2768441280087478e-04  -4.3469802989906116e-04  -6.0181210766867732e-04  -7.1155862751096414e-04  -7.4900590306240065e-04  -7.0243353914740763e-04  -5.6387993533635252e-04  -3.2954043717673277e-04  -1.5079355762242106e-15  4.1970937642786603e-04  9.2022940511391751e-04  1.4881705200609891e-03  2.1065704332851177e-03  2.7554991797515507e-03  3.4127878791261135e-03  4.0548536016592300e-03  4.6575889396102930e-03  5.1972823017056389e-03  5.6515336663154198e-03  6.0001305993575942e-03  6.2258507633828593e-03  6.3151598608598026e-03  6.2587778633975298e-03  6.0520913295538476e-03  5.6953954168473837e-03  5.1939556258774489e-03  4.5578861299208576e-03  3.8018484833097195e-03  2.9445813072469591e-03  2.0082779760011204e-03  1.0178351469481578e-03  0.0000000000000000e+00  0.0000000000000000e+00  -2.9811454556559057e-04  -5.7347039868590945e-04  -8.0488902719587970e-04  -9.7309126153018069e-04  -1.0615365880613529e-03  -1.0571542307107151e-03  -9.5093709663366592e-04  -7.3837494938874891e-04  -4.1970937643093838e-04  -1.5601741500352127e-15  5.1100132257795292e-04  1.0991641322273800e-03  1.7464693791970642e-03  2.4316575097635437e-03  3.1310101764681721e-03  3.8192359034462785e-03  4.4704259567324494e-03  5.0590438800925995e-03  5.5609107678569174e-03  5.9541484115225359e-03  6.2200439747694342e-03  6.3438027643542049e-03  6.3151598608599726e-03  6.1288266929353371e-03  5.7847548779035255e-03  5.2882065720348962e-03  4.6496279117359384e-03  3.8843296045830522e-03  3.0119860661807453e-03  2.0559714238716710e-03  1.0425569683967866e-03  0.0000000000000000e+00  0.0000000000000000e+00  -3.7640561283988839e-04  -7.2808766420992467e-04  -1.0320193099529790e-03  -1.2671951439107031e-03  -1.4155270300688343e-03  -1.4626251999406634e-03  -1.3984338435209668e-03  -1.2176960333568924e-03  -9.2022940511698212e-04  -5.1100132258105396e-04  -1.5340220884299103e-15  5.9809405730010788e-04  1.2644242058188230e-03  1.9766420523966042e-03  2.7097341887328259e-03  3.4369598396588041e-03  4.1308636532564821e-03  4.7643248914134885e-03  5.3116027948838518e-03  5.7493379550839227e-03  6.0574711241743063e-03  6.2200439747696424e-03  6.2258507633832331e-03  6.0689154877368746e-03  5.7487757420660382e-03  5.2705618141751951e-03  4.6448673538519222e-03  3.8874158790161688e-03  3.0185351740446742e-03  2.0624589813981738e-03  1.0464820170277972e-03  0.0000000000000000e+00  0.0000000000000000e+00  -4.6070808589165365e-04  -8.9488301787375745e-04  -1.2777789883142167e-03  -1.5867757653349546e-03  -1.8023232960282891e-03  -1.9087661495330724e-03  -1.8950154694064370e-03  -1.7550419835978834e-03  -1.4881705200639852e-03  -1.0991641322303982e-03  -5.9809405730307773e-04  -1.4278960784259741e-15  6.7564666319969028e-04  1.4056565403097760e-03  2.1639856694294032e-03  2.9227158659465265e-03  3.6531145262181613e-03  4.3267333201991390e-03  4.9165036384218475e-03  5.3977867078386314e-03  5.7493379550841665e-03  5.9541484115229826e-03  6.0001305993581996e-03  5.8806222347252404e-03  5.5946880069179658e-03  5.1472073785254358e-03  4.5487445064203436e-03  3.8152046980081430e-03  2.9672899751669833e-03  2.0297740102129453e-03  1.0306236310993282e-03  0.0000000000000000e+00  0.0000000000000000e+00  -5.4874495964455218e-04  -1.0693364152368670e-03  -1.5354691465957596e-03  -1.9230484359903754e-03  -2.2111750931376765e-03  -2.3830060418238786e-03  -2.4264568832500768e-03  -2.3347189400288919e-03  -2.1065704332879896e-03  -1.7464693791999419e-03  -1.2644242058216359e-03  -6.7564666320237248e-04  -1.2465406516384513e-15  7.3873671441912253e-04  1.5137601360938793e-03  2.2962560386177609e-03  3.0564957970669322e-03  3.7649739629251706e-03  4.3935432935886349e-03  4.9165036384221225e-03  5.3116027948843661e-03  5.5609107678576278e-03  5.6515336663162767e-03  5.5761395704515652e-03  5.3332758663336942e-03  4.9274655005434338e-03  4.3690780503051387e-03  3.6739801134370647e-03  2.8629779685728010e-03  1.9610734171237312e-03  9.9656088928137907e-04  0.0000000000000000e+00  0.0000000000000000e+00  -6.3789019564055107e-04  -1.2462304756137412e-03  -1.7973474545597999e-03  -2.2658428219677253e-03  -2.6296099080894719e-03  -2.8707227206512184e-03  -2.9761629307974891e-03  -2.9383565264745307e-03  -2.7554991797542503e-03  -2.4316575097662312e-03  -1.9766420523992093e-03  -1.4056565403122343e-03  -7.3873671442137659e-04  -1.0008430741356689e-15  7.8326532462565438e-04  1.5816366412698805e-03  2.3646794991615851e-03  3.1021130884905865e-03  3.7649739629254716e-03  4.3267333201997115e-03  4.7643248914142925e-03  5.0590438800935892e-03  5.1972823017067595e-03  5.1710723156143806e-03  4.9784164755609624e-03  4.6233919714870186e-03  4.1160245831402178e-03  3.4719368841310970e-03  2.7117838864381179e-03  1.8604974685603099e-03  9.4636827230737245e-04  0.0000000000000000e+00  0.0000000000000000e+00  -7.2526250486735578e-04  -1.4198369595807535e-03  -2.0549052869995813e-03  -2.6039677178217218e-03  -3.0438815467291693e-03  -3.3557704857495956e-03  -3.5257694844879226e-03  -3.5455762177864984e-03  -3.4127878791286002e-03  -3.1310101764706272e-03  -2.7097341887351812e-03  -2.1639856694315967e-03  -1.5137601360958547e-03  -7.8326532462736622e-04  -7.0663726493404786e-16  8.0629558512966841e-04  1.6047773464585131e-03  2.3646794991619043e-03  3.0564957970675489e-03  3.6531145262190426e-03  4.1308636532575854e-03  4.4704259567337236e-03  4.6575889396116817e-03  4.6838006435910521e-03  4.5465099184170852e-03  4.2492779575546173e-03  3.8016566793149776e-03  3.2188384740216296e-03  2.5210906104858200e-03  1.7329958623844607e-03  8.8252835920499327e-04  0.0000000000000000e+00  0.0000000000000000e+00  -8.0783094826629301e-04  -1.5841268179880702e-03  -2.2991800102561671e-03  -2.9256223280558946e-03  -3.4394761759431749e-03  -3.8210757189656441e-03  -4.0558225968366345e-03  -4.1347471513900821e-03  -4.0548536016614730e-03  -3.8192359034484708e-03  -3.4369598396608793e-03  -2.9227158659484252e-03  -2.2962560386194297e-03  -1.5816366412712765e-03  -8.0629558513076020e-04  -3.8353187331014556e-16  8.0629558512999671e-04  1.5816366412705245e-03  2.2962560386186963e-03  2.9227158659477165e-03  3.4369598396602032e-03  3.8192359034478333e-03  4.0548536016608797e-03  4.1347471513895400e-03  4.0558225968361488e-03  3.8210757189652187e-03  3.4394761759428140e-03  2.9256223280556015e-03  2.2991800102559450e-03  1.5841268179879210e-03  8.0783094826621799e-04  0.0000000000000000e+00  0.0000000000000000e+00  -8.8252835920506765e-04  -1.7329958623846088e-03  -2.5210906104860408e-03  -3.2188384740219206e-03  -3.8016566793153362e-03  -4.2492779575550406e-03  -4.5465099184175684e-03  -4.6838006435915907e-03  -4.6575889396122706e-03  -4.4704259567343576e-03  -4.1308636532582576e-03  -3.6531145262197469e-03  -3.0564957970682788e-03  -2.3646794991626524e-03  -1.6047773464592727e-03  -8.0629558513043180e-04  -5.3070222230165174e-17  7.8326532462661747e-04  1.5137601360951242e-03  2.1639856694308911e-03  2.7097341887345082e-03  3.1310101764699923e-03  3.4127878791280096e-03  3.5455762177859580e-03  3.5257694844874382e-03  3.3557704857491710e-03  3.0438815467288094e-03  2.6039677178214295e-03  2.0549052869993601e-03  1.4198369595806045e-03  7.2526250486728097e-04  0.0000000000000000e+00  0.0000000000000000e+00  -9.4636827230744575e-04  -1.8604974685604556e-03  -2.7117838864383348e-03  -3.4719368841313837e-03  -4.1160245831405708e-03  -4.6233919714874349e-03  -4.9784164755614377e-03  -5.1710723156149106e-03  -5.1972823017073389e-03  -5.0590438800942128e-03  -4.7643248914149543e-03  -4.3267333202004054e-03  -3.7649739629261906e-03  -3.1021130884913237e-03  -2.3646794991623336e-03  -1.5816366412706327e-03  -7.8326532462640324e-04  2.6270978079449379e-16  7.3873671442065613e-04  1.4056565403115385e-03  1.9766420523985454e-03  2.4316575097656046e-03  2.7554991797536675e-03  2.9383565264739977e-03  2.9761629307970107e-03  2.8707227206507995e-03  2.6296099080891167e-03  2.2658428219674369e-03  1.7973474545595813e-03  1.2462304756135942e-03  6.3789019564047724e-04  0.0000000000000000e+00  0.0000000000000000e+00  -9.9656088928145041e-04  -1.9610734171238734e-03  -2.8629779685730126e-03  -3.6739801134373440e-03  -4.3690780503054831e-03  -4.9274655005438397e-03  -5.3332758663341582e-03  -5.5761395704520822e-03  -5.6515336663168414e-03  -5.5609107678582358e-03  -5.3116027948850114e-03  -4.9165036384227999e-03  -4.3935432935893358e-03  -3.7649739629258905e-03  -3.0564957970676625e-03  -2.2962560386184947e-03  -1.5137601360946098e-03  -7.3873671441984287e-04  5.4336476588571621e-16  6.7564666320169345e-04  1.2644242058209873e-03  1.7464693791993302e-03  2.1065704332874206e-03  2.3347189400283711e-03  2.4264568832496097e-03  2.3830060418234696e-03  2.2111750931373296e-03  1.9230484359900938e-03  1.5354691465955461e-03  1.0693364152367234e-03  5.4874495964448008e-04  0.0000000000000000e+00  0.0000000000000000e+00  -1.0306236310993970e-03  -2.0297740102130824e-03  -2.9672899751671876e-03  -3.8152046980084119e-03  -4.5487445064206749e-03  -5.1472073785258270e-03  -5.5946880069184133e-03  -5.8806222347257391e-03  -6.0001305993587443e-03  -5.9541484115235698e-03  -5.7493379550847884e-03  -5.3977867078392836e-03  -4.9165036384225249e-03  -4.3267333201998329e-03  -3.6531145262188661e-03  -2.9227158659472351e-03  -2.1639856694301088e-03  -1.4056565403104716e-03  -6.7564666320036920e-04  7.7195002253826512e-16  5.9809405730245127e-04  1.0991641322298071e-03  1.4881705200634355e-03  1.7550419835973806e-03  1.8950154694059858e-03  1.9087661495326771e-03  1.8023232960279537e-03  1.5867757653346823e-03  1.2777789883140101e-03  8.9488301787361867e-04  4.6070808589158393e-04  0.0000000000000000e+00  0.0000000000000000e+00  -1.0464820170278627e-03  -2.0624589813983043e-03  -3.0185351740448685e-03  -3.8874158790164252e-03  -4.6448673538522387e-03  -5.2705618141755681e-03  -5.7487757420664649e-03  -6.0689154877373499e-03  -6.2258507633837536e-03  -6.2200439747702018e-03  -6.0574711241748996e-03  -5.7493379550845455e-03  -5.3116027948844971e-03  -4.7643248914141512e-03  -4.1308636532571552e-03  -3.4369598396594802e-03  -2.7097341887334990e-03  -1.9766420523972686e-03  -1.2644242058194714e-03  -5.9809405730073433e-04  9.3575570799845382e-16  5.1100132258048952e-04  9.2022940511645704e-04  1.2176960333564119e-03  1.3984338435205355e-03  1.4626251999402856e-03  1.4155270300685136e-03  1.2671951439104431e-03  1.0320193099527817e-03  7.2808766420979197e-04  3.7640561283982176e-04  0.0000000000000000e+00  0.0000000000000000e+00  -1.0425569683968484e-03  -2.0559714238717938e-03  -3.0119860661809283e-03  -3.8843296045832933e-03  -4.6496279117362359e-03  -5.2882065720352475e-03  -5.7847548779039262e-03  -6.1288266929357856e-03  -6.3151598608604627e-03  -6.3438027643547331e-03  -6.2200439747699945e-03  -5.9541484115231231e-03  -5.5609107678575272e-03  -5.0590438800932240e-03  -4.4704259567330835e-03  -3.8192359034469161e-03  -3.1310101764688066e-03  -2.4316575097641699e-03  -1.7464693791976757e-03  -1.0991641322279709e-03  -5.1100132257851725e-04  1.0278241167129449e-15  4.1970937643044317e-04  7.3837494938829571e-04  9.5093709663325913e-04  1.0571542307103586e-03  1.0615365880610505e-03  9.7309126152993512e-04  8.0488902719569333e-04  5.7347039868578423e-04  2.9811454556552769e-04  0.0000000000000000e+00  0.0000000000000000e+00  -1.0178351469482152e-03  -2.0082779760012344e-03  -2.9445813072471291e-03  -3.8018484833099437e-03  -4.5578861299211343e-03  -5.1939556258777751e-03  -5.6953954168477558e-03  -6.0520913295542640e-03  -6.2587778633979851e-03  -6.3151598608602926e-03  -6.2258507633833797e-03  -6.0001305993581406e-03  -5.6515336663159870e-03  -5.1972823017062200e-03  -4.6575889396108829e-03  -4.0548536016598233e-03  -3.4127878791267038e-03  -2.7554991797521331e-03  -2.1065704332856863e-03  -1.4881705200615388e-03  -9.2022940511444237e-04  -4.1970937642836118e-04  1.0472814977352056e-15  3.2954043717631123e-04  5.6387993533597413e-04  7.0243353914707608e-04  7.4900590306211919e-04  7.1155862751073559e-04  6.0181210766850385e-04  4.3469802989894467e-04  2.2768441280081623e-04  0.0000000000000000e+00  0.0000000000000000e+00  -9.7191958830963410e-04  -1.9185697896354570e-03  -2.8150762819012919e-03  -3.6382608487219061e-03  -4.3674266698439474e-03  -4.9850504332201633e-03  -5.4773558482823972e-03  -5.8347477561675673e-03  -6.0520913295541304e-03  -6.1288266929354863e-03  -6.0689154877368564e-03  -5.8806222347250279e-03  -5.5761395704511350e-03  -5.1710723156137171e-03  -4.6838006435901492e-03  -4.1347471513884003e-03  -3.5455762177845911e-03  -2.9383565264724243e-03  -2.3347189400266190e-03  -1.7550419835954854e-03  -1.2176960333544161e-03  -7.3837494938624689e-04  -3.2954043717426090e-04  9.9921817587567981e-16  2.45365872868605