<?xml version="1.0"?>
<VTKFile type="UnstructuredGrid"  version="0.1"  >
<UnstructuredGrid>
<Piece  NumberOfPoints="1089" NumberOfCells="2048">
<Points>
<DataArray  type="Float64"  NumberOfComponents="3"  format="ascii">0 0 0  0.03125 0 0  0.0625 0 0  0.09375 0 0  0.125 0 0  0.15625 0 0  0.1875 0 0  0.21875 0 0  0.25 0 0  0.28125 0 0  0.3125 0 0  0.34375 0 0  0.375 0 0  0.40625 0 0  0.4375 0 0  0.46875 0 0  0.5 0 0  0.53125 0 0  0.5625 0 0  0.59375 0 0  0.625 0 0  0.65625 0 0  0.6875 0 0  0.71875 0 0  0.75 0 0  0.78125 0 0  0.8125 0 0  0.84375 0 0  0.875 0 0  0.90625 0 0  0.9375 0 0  0.96875 0 0  1 0 0  0 0.03125 0  0.03125 0.03125 0  0.0625 0.03125 0  0.09375 0.03125 0  0.125 0.03125 0  0.15625 0.03125 0  0.1875 0.03125 0  0.21875 0.03125 0  0.25 0.03125 0  0.28125 0.03125 0  0.3125 0.03125 0  0.34375 0.03125 0  0.375 0.03125 0  0.40625 0.03125 0  0.4375 0.03125 0  0.46875 0.03125 0  0.5 0.03125 0  0.53125 0.03125 0  0.5625 0.03125 0  0.59375 0.03125 0  0.625 0.03125 0  0.65625 0.03125 0  0.6875 0.03125 0  0.71875 0.03125 0  0.75 0.03125 0  0.78125 0.03125 0  0.8125 0.03125 0  0.84375 0.03125 0  0.875 0.03125 0  0.90625 0.03125 0  0.9375 0.03125 0  0.96875 0.03125 0  1 0.03125 0  0 0.0625 0  0.03125 0.0625 0  0.0625 0.0625 0  0.09375 0.0625 0  0.125 0.0625 0  0.15625 0.0625 0  0.1875 0.0625 0  0.21875 0.0625 0  0.25 0.0625 0  0.28125 0.0625 0  0.3125 0.0625 0  0.34375 0.0625 0  0.375 0.0625 0  0.40625 0.0625 0  0.4375 0.0625 0  0.46875 0.0625 0  0.5 0.0625 0  0.53125 0.0625 0  0.5625 0.0625 0  0.59375 0.0625 0  0.625 0.0625 0  0.65625 0.0625 0  0.6875 0.0625 0  0.71875 0.0625 0  0.75 0.0625 0  0.78125 0.0625 0  0.8125 0.0625 0  0.84375 0.0625 0  0.875 0.0625 0  0.90625 0.0625 0  0.9375 0.0625 0  0.96875 0.0625 0  1 0.0625 0  0 0.09375 0  0.03125 0.09375 0  0.0625 0.09375 0  0.09375 0.09375 0  0.125 0.09375 0  0.15625 0.09375 0  0.1875 0.09375 0  0.21875 0.09375 0  0.25 0.09375 0  0.28125 0.09375 0  0.3125 0.09375 0  0.34375 0.09375 0  0.375 0.09375 0  0.40625 0.09375 0  0.4375 0.09375 0  0.46875 0.09375 0  0.5 0.09375 0  0.53125 0.09375 0  0.5625 0.09375 0  0.59375 0.09375 0  0.625 0.09375 0  0.65625 0.09375 0  0.6875 0.09375 0  0.71875 0.09375 0  0.75 0.09375 0  0.78125 0.09375 0  0.8125 0.09375 0  0.84375 0.09375 0  0.875 0.09375 0  0.90625 0.09375 0  0.9375 0.09375 0  0.96875 0.09375 0  1 0.09375 0  0 0.125 0  0.03125 0.125 0  0.0625 0.125 0  0.09375 0.125 0  0.125 0.125 0  0.15625 0.125 0  0.1875 0.125 0  0.21875 0.125 0  0.25 0.125 0  0.28125 0.125 0  0.3125 0.125 0  0.34375 0.125 0  0.375 0.125 0  0.40625 0.125 0  0.4375 0.125 0  0.46875 0.125 0  0.5 0.125 0  0.53125 0.125 0  0.5625 0.125 0  0.59375 0.125 0  0.625 0.125 0  0.65625 0.125 0  0.6875 0.125 0  0.71875 0.125 0  0.75 0.125 0  0.78125 0.125 0  0.8125 0.125 0  0.84375 0.125 0  0.875 0.125 0  0.90625 0.125 0  0.9375 0.125 0  0.96875 0.125 0  1 0.125 0  0 0.15625 0  0.03125 0.15625 0  0.0625 0.15625 0  0.09375 0.15625 0  0.125 0.15625 0  0.15625 0.15625 0  0.1875 0.15625 0  0.21875 0.15625 0  0.25 0.15625 0  0.28125 0.15625 0  0.3125 0.15625 0  0.34375 0.15625 0  0.375 0.15625 0  0.40625 0.15625 0  0.4375 0.15625 0  0.46875 0.15625 0  0.5 0.15625 0  0.53125 0.15625 0  0.5625 0.15625 0  0.59375 0.15625 0  0.625 0.15625 0  0.65625 0.15625 0  0.6875 0.15625 0  0.71875 0.15625 0  0.75 0.15625 0  0.78125 0.15625 0  0.8125 0.15625 0  0.84375 0.15625 0  0.875 0.15625 0  0.90625 0.15625 0  0.9375 0.15625 0  0.96875 0.15625 0  1 0.15625 0  0 0.1875 0  0.03125 0.1875 0  0.0625 0.1875 0  0.09375 0.1875 0  0.125 0.1875 0  0.15625 0.1875 0  0.1875 0.1875 0  0.21875 0.1875 0  0.25 0.1875 0  0.28125 0.1875 0  0.3125 0.1875 0  0.34375 0.1875 0  0.375 0.1875 0  0.40625 0.1875 0  0.4375 0.1875 0  0.46875 0.1875 0  0.5 0.1875 0  0.53125 0.1875 0  0.5625 0.1875 0  0.59375 0.1875 0  0.625 0.1875 0  0.65625 0.1875 0  0.6875 0.1875 0  0.71875 0.1875 0  0.75 0.1875 0  0.78125 0.1875 0  0.8125 0.1875 0  0.84375 0.1875 0  0.875 0.1875 0  0.90625 0.1875 0  0.9375 0.1875 0  0.96875 0.1875 0  1 0.1875 0  0 0.21875 0  0.03125 0.21875 0  0.0625 0.21875 0  0.09375 0.21875 0  0.125 0.21875 0  0.15625 0.21875 0  0.1875 0.21875 0  0.21875 0.21875 0  0.25 0.21875 0  0.28125 0.21875 0  0.3125 0.21875 0  0.34375 0.21875 0  0.375 0.21875 0  0.40625 0.21875 0  0.4375 0.21875 0  0.46875 0.21875 0  0.5 0.21875 0  0.53125 0.21875 0  0.5625 0.21875 0  0.59375 0.21875 0  0.625 0.21875 0  0.65625 0.21875 0  0.6875 0.21875 0  0.71875 0.21875 0  0.75 0.21875 0  0.78125 0.21875 0  0.8125 0.21875 0  0.84375 0.21875 0  0.875 0.21875 0  0.90625 0.21875 0  0.9375 0.21875 0  0.96875 0.21875 0  1 0.21875 0  0 0.25 0  0.03125 0.25 0  0.0625 0.25 0  0.09375 0.25 0  0.125 0.25 0  0.15625 0.25 0  0.1875 0.25 0  0.21875 0.25 0  0.25 0.25 0  0.28125 0.25 0  0.3125 0.25 0  0.34375 0.25 0  0.375 0.25 0  0.40625 0.25 0  0.4375 0.25 0  0.46875 0.25 0  0.5 0.25 0  0.53125 0.25 0  0.5625 0.25 0  0.59375 0.25 0  0.625 0.25 0  0.65625 0.25 0  0.6875 0.25 0  0.71875 0.25 0  0.75 0.25 0  0.78125 0.25 0  0.8125 0.25 0  0.84375 0.25 0  0.875 0.25 0  0.90625 0.25 0  0.9375 0.25 0  0.96875 0.25 0  1 0.25 0  0 0.28125 0  0.03125 0.28125 0  0.0625 0.28125 0  0.09375 0.28125 0  0.125 0.28125 0  0.15625 0.28125 0  0.1875 0.28125 0  0.21875 0.28125 0  0.25 0.28125 0  0.28125 0.28125 0  0.3125 0.28125 0  0.34375 0.28125 0  0.375 0.28125 0  0.40625 0.28125 0  0.4375 0.28125 0  0.46875 0.28125 0  0.5 0.28125 0  0.53125 0.28125 0  0.5625 0.28125 0  0.59375 0.28125 0  0.625 0.28125 0  0.65625 0.28125 0  0.6875 0.28125 0  0.71875 0.28125 0  0.75 0.28125 0  0.78125 0.28125 0  0.8125 0.28125 0  0.84375 0.28125 0  0.875 0.28125 0  0.90625 0.28125 0  0.9375 0.28125 0  0.96875 0.28125 0  1 0.28125 0  0 0.3125 0  0.03125 0.3125 0  0.0625 0.3125 0  0.09375 0.3125 0  0.125 0.3125 0  0.15625 0.3125 0  0.1875 0.3125 0  0.21875 0.3125 0  0.25 0.3125 0  0.28125 0.3125 0  0.3125 0.3125 0  0.34375 0.3125 0  0.375 0.3125 0  0.40625 0.3125 0  0.4375 0.3125 0  0.46875 0.3125 0  0.5 0.3125 0  0.53125 0.3125 0  0.5625 0.3125 0  0.59375 0.3125 0  0.625 0.3125 0  0.65625 0.3125 0  0.6875 0.3125 0  0.71875 0.3125 0  0.75 0.3125 0  0.78125 0.3125 0  0.8125 0.3125 0  0.84375 0.3125 0  0.875 0.3125 0  0.90625 0.3125 0  0.9375 0.3125 0  0.96875 0.3125 0  1 0.3125 0  0 0.34375 0  0.03125 0.34375 0  0.0625 0.34375 0  0.09375 0.34375 0  0.125 0.34375 0  0.15625 0.34375 0  0.1875 0.34375 0  0.21875 0.34375 0  0.25 0.34375 0  0.28125 0.34375 0  0.3125 0.34375 0  0.34375 0.34375 0  0.375 0.34375 0  0.40625 0.34375 0  0.4375 0.34375 0  0.46875 0.34375 0  0.5 0.34375 0  0.53125 0.34375 0  0.5625 0.34375 0  0.59375 0.34375 0  0.625 0.34375 0  0.65625 0.34375 0  0.6875 0.34375 0  0.71875 0.34375 0  0.75 0.34375 0  0.78125 0.34375 0  0.8125 0.34375 0  0.84375 0.34375 0  0.875 0.34375 0  0.90625 0.34375 0  0.9375 0.34375 0  0.96875 0.34375 0  1 0.34375 0  0 0.375 0  0.03125 0.375 0  0.0625 0.375 0  0.09375 0.375 0  0.125 0.375 0  0.15625 0.375 0  0.1875 0.375 0  0.21875 0.375 0  0.25 0.375 0  0.28125 0.375 0  0.3125 0.375 0  0.34375 0.375 0  0.375 0.375 0  0.40625 0.375 0  0.4375 0.375 0  0.46875 0.375 0  0.5 0.375 0  0.53125 0.375 0  0.5625 0.375 0  0.59375 0.375 0  0.625 0.375 0  0.65625 0.375 0  0.6875 0.375 0  0.71875 0.375 0  0.75 0.375 0  0.78125 0.375 0  0.8125 0.375 0  0.84375 0.375 0  0.875 0.375 0  0.90625 0.375 0  0.9375 0.375 0  0.96875 0.375 0  1 0.375 0  0 0.40625 0  0.03125 0.40625 0  0.0625 0.40625 0  0.09375 0.40625 0  0.125 0.40625 0  0.15625 0.40625 0  0.1875 0.40625 0  0.21875 0.40625 0  0.25 0.40625 0  0.28125 0.40625 0  0.3125 0.40625 0  0.34375 0.40625 0  0.375 0.40625 0  0.40625 0.40625 0  0.4375 0.40625 0  0.46875 0.40625 0  0.5 0.40625 0  0.53125 0.40625 0  0.5625 0.40625 0  0.59375 0.40625 0  0.625 0.40625 0  0.65625 0.40625 0  0.6875 0.40625 0  0.71875 0.40625 0  0.75 0.40625 0  0.78125 0.40625 0  0.8125 0.40625 0  0.84375 0.40625 0  0.875 0.40625 0  0.90625 0.40625 0  0.9375 0.40625 0  0.96875 0.40625 0  1 0.40625 0  0 0.4375 0  0.03125 0.4375 0  0.0625 0.4375 0  0.09375 0.4375 0  0.125 0.4375 0  0.15625 0.4375 0  0.1875 0.4375 0  0.21875 0.4375 0  0.25 0.4375 0  0.28125 0.4375 0  0.3125 0.4375 0  0.34375 0.4375 0  0.375 0.4375 0  0.40625 0.4375 0  0.4375 0.4375 0  0.46875 0.4375 0  0.5 0.4375 0  0.53125 0.4375 0  0.5625 0.4375 0  0.59375 0.4375 0  0.625 0.4375 0  0.65625 0.4375 0  0.6875 0.4375 0  0.71875 0.4375 0  0.75 0.4375 0  0.78125 0.4375 0  0.8125 0.4375 0  0.84375 0.4375 0  0.875 0.4375 0  0.90625 0.4375 0  0.9375 0.4375 0  0.96875 0.4375 0  1 0.4375 0  0 0.46875 0  0.03125 0.46875 0  0.0625 0.46875 0  0.09375 0.46875 0  0.125 0.46875 0  0.15625 0.46875 0  0.1875 0.46875 0  0.21875 0.46875 0  0.25 0.46875 0  0.28125 0.46875 0  0.3125 0.46875 0  0.34375 0.46875 0  0.375 0.46875 0  0.40625 0.46875 0  0.4375 0.46875 0  0.46875 0.46875 0  0.5 0.46875 0  0.53125 0.46875 0  0.5625 0.46875 0  0.59375 0.46875 0  0.625 0.46875 0  0.65625 0.46875 0  0.6875 0.46875 0  0.71875 0.46875 0  0.75 0.46875 0  0.78125 0.46875 0  0.8125 0.46875 0  0.84375 0.46875 0  0.875 0.46875 0  0.90625 0.46875 0  0.9375 0.46875 0  0.96875 0.46875 0  1 0.46875 0  0 0.5 0  0.03125 0.5 0  0.0625 0.5 0  0.09375 0.5 0  0.125 0.5 0  0.15625 0.5 0  0.1875 0.5 0  0.21875 0.5 0  0.25 0.5 0  0.28125 0.5 0  0.3125 0.5 0  0.34375 0.5 0  0.375 0.5 0  0.40625 0.5 0  0.4375 0.5 0  0.46875 0.5 0  0.5 0.5 0  0.53125 0.5 0  0.5625 0.5 0  0.59375 0.5 0  0.625 0.5 0  0.65625 0.5 0  0.6875 0.5 0  0.71875 0.5 0  0.75 0.5 0  0.78125 0.5 0  0.8125 0.5 0  0.84375 0.5 0  0.875 0.5 0  0.90625 0.5 0  0.9375 0.5 0  0.96875 0.5 0  1 0.5 0  0 0.53125 0  0.03125 0.53125 0  0.0625 0.53125 0  0.09375 0.53125 0  0.125 0.53125 0  0.15625 0.53125 0  0.1875 0.53125 0  0.21875 0.53125 0  0.25 0.53125 0  0.28125 0.53125 0  0.3125 0.53125 0  0.34375 0.53125 0  0.375 0.53125 0  0.40625 0.53125 0  0.4375 0.53125 0  0.46875 0.53125 0  0.5 0.53125 0  0.53125 0.53125 0  0.5625 0.53125 0  0.59375 0.53125 0  0.625 0.53125 0  0.65625 0.53125 0  0.6875 0.53125 0  0.71875 0.53125 0  0.75 0.53125 0  0.78125 0.531
[...]
<PointData  Scalars="phi"> 
<DataArray  type="Float64"  Name="phi"  format="ascii">0.0000000000000000e+00  0.0000000000000000e+00  0.0000000000000000e+00  0.0000000000000000e+00  0.0000000000000000e+00  0.0000000000000000e+00  0.0000000000000000e+00  0.0000000000000000e+00  0.0000000000000000e+00  0.0000000000000000e+00  0.0000000000000000e+00  0.0000000000000000e+00  0.0000000000000000e+00  0.0000000000000000e+00  0.0000000000000000e+00  0.0000000000000000e+00  0.0000000000000000e+00  0.0000000000000000e+00  0.0000000000000000e+00  0.0000000000000000e+00  0.0000000000000000e+00  0.0000000000000000e+00  0.0000000000000000e+00  0.0000000000000000e+00  0.0000000000000000e+00  0.0000000000000000e+00  0.0000000000000000e+00  0.0000000000000000e+00  0.0000000000000000e+00  0.0000000000000000e+00  0.0000000000000000e+00  0.0000000000000000e+00  0.0000000000000000e+00  0.0000000000000000e+00  -8.0294249063898172e-20  2.0330586935107883e-10  8.0107455830304347e-10  1.9645381048985191e-09  3.8368833207817068e-09  6.5261320939772466e-09  1.0099383681545450e-08  1.4578685163326701e-08  1.9938717266587338e-08  2.6106405634024945e-08  3.2962489613249552e-08  4.0345002778832477e-08  4.8054543863578802e-08  5.5861146144235688e-08  6.3512490165665216e-08  7.0743151359704458e-08  7.7284532646998960e-08  8.2875104096568201e-08  8.7270558253667626e-08  9.0253491385131166e-08  9.1642237630255836e-08  9.1298514342651350e-08  8.9133581740895416e-08  8.5112676969297685e-08  7.9257550303799328e-08  7.1647008435521361e-08  6.2415457157939878e-08  5.1749539337694280e-08  3.9883106177827719e-08  2.7091016738921172e-08  1.3682898296225236e-08  0.0000000000000000e+00  0.0000000000000000e+00  -2.0330586967036054e-10  -3.1748044683953593e-19  9.9177059644888650e-10  3.1145607618775363e-09  6.6552416309776178e-09  1.1830732078760302e-08  1.8776481569394384e-08  2.7538208357989563e-08  3.8067257252556285e-08  5.0219793263636106e-08  6.3759894248038970e-08  7.8366451443877832e-08  9.3643636752836734e-08  1.0913455513724412e-07  1.2433757477741730e-07  1.3872472142641511e-07  1.5176144075891120e-07  1.6292697662231059e-07  1.7173458614476749e-07  1.7775081573580403e-07  1.8061309511342759e-07  1.8004496849612688e-07  1.7586837089389975e-07  1.6801247007716970e-07  1.5651872783749034e-07  1.4154198415507350e-07  1.2334753247860223e-07  1.0230433404881790e-07  7.8874720542753063e-08  5.3601171005081545e-08  2.7091016738921251e-08  0.0000000000000000e+00  0.0000000000000000e+00  -8.0107455877762604e-10  -9.9177059739283855e-10  -7.0172514552786053e-19  2.6882420319480223e-09  7.5042556485946997e-09  1.4775259474476872e-08  2.4707150942220663e-08  3.7372131014591563e-08  5.2701725668250861e-08  7.0485522249282246e-08  9.0375713391417094e-08  1.1189731288182671e-07  1.3446368510424853e-07  1.5739682082782624e-07  1.7995160504778919e-07  2.0134316445508205e-07  2.2077625898342881e-07  2.3747559850875128e-07  2.5071592541164668e-07  2.5985070798851965e-07  2.6433833856094413e-07  2.6376482187433117e-07  2.5786207071854726e-07  2.4652109197847642e-07  2.2979954173568166e-07  2.0792334599037880e-07  1.8128231692583986e-07  1.5041993552823528e-07  1.1601770886497631e-07  7.8874720542753447e-08  3.9883106177828030e-08  0.0000000000000000e+00  0.0000000000000000e+00  -1.9645381055234954e-09  -3.1145607631207433e-09  -2.6882420337965331e-09  -1.2174214218241838e-18  5.5268082236296944e-09  1.4331524844192979e-08  2.6693317750695997e-08  4.2714740095375307e-08  6.2312417955623140e-08  8.5215282414699419e-08  1.1097046734725150e-07  1.3895669431927284e-07  1.6840467287166674e-07  1.9842376929861634e-07  2.2803395041072592e-07  2.5620180016498174e-07  2.8187924448667124e-07  3.0404350939129485e-07  3.2173678393457025e-07  3.3410406471735229e-07  3.4042772255572723e-07  3.4015745217341842e-07  3.3293443792892145e-07  3.1860878623281194e-07  2.9724953026908864e-07  2.6914679517137755e-07  2.3480601060123121e-07  1.9493435918438798e-07  1.5041993552823634e-07  1.0230433404881912e-07  5.1749539337695048e-08  0.0000000000000000e+00  0.0000000000000000e+00  -3.8368833215506886e-09  -6.6552416325073841e-09  -7.5042556508694133e-09  -5.5268082266260585e-09  -1.8437590703121714e-18  9.6297013949956929e-09  2.3718095176918516e-08  4.2402823203944681e-08  6.5591740551014420e-08  9.2960592414088782e-08  1.2396014680440210e-07  1.5783256385781413e-07  1.9363642186660763e-07  2.3027948129891850e-07  2.6655796419131271e-07  3.0120086911090398e-07  3.3291764132036360e-07  3.6044738160944741e-07  3.8260771078284390e-07  3.9834141265048953e-07  4.0675905641592022e-07  4.0717594669208027e-07  3.9914196040971532e-07  3.8246309654470725e-07  3.5721387653818492e-07  3.2374007813582531e-07  2.8265164881513978e-07  2.3480601060123338e-07  1.8128231692584283e-07  1.2334753247860485e-07  6.2415457157941373e-08  0.0000000000000000e+00  0.0000000000000000e+00  -6.5261320948824262e-09  -1.1830732080561101e-08  -1.4775259477154717e-08  -1.4331524847720493e-08  -9.6297013993370048e-09  -2.5555771329373458e-18  1.4993663916089721e-08  3.5529377692589477e-08  6.1513318206378365e-08  9.2576821811450187e-08  1.2808461488364020e-07  1.6715394837814202e-07  2.0868395481502668e-07  2.5139414672498506e-07  2.9387061725020912e-07  3.3461820016082440e-07  3.7211660975071064e-07  4.0487842009058191e-07  4.3150666420159522e-07  4.5074983997719638e-07  4.6155220095513927e-07  4.6309738287576308e-07  4.5484366473835043e-07  4.3654947621332994e-07  4.0828812955634993e-07  3.7045115906397752e-07  3.2374007813582912e-07  2.6914679517138316e-07  2.0792334599038463e-07  1.4154198415507813e-07  7.1647008435523916e-08  0.0000000000000000e+00  0.0000000000000000e+00  -1.0099383682577684e-08  -1.8776481571448028e-08  -2.4707150945274597e-08  -2.6693317754719050e-08  -2.3718095181869821e-08  -1.4993663921919170e-08  -3.3244118953932072e-18  2.1487113259582990e-08  4.9379939821459699e-08  8.3275203930059294e-08  1.2246326693522590e-07  1.6594977756977737e-07  2.1248902004290588e-07  2.6062772803473512e-07  3.0875772317772198e-07  3.5517538969132927e-07  3.9814572591801521e-07  4.3596852908157368e-07  4.6704417881637061e-07  4.8993649145761197e-07  5.0343022055274104e-07  5.0658097561858050e-07  4.9875561327970798e-07  4.7966151168032709e-07  4.4936355658988749e-07  4.0828812955635591e-07  3.5721387653819434e-07  2.9724953026909917e-07  2.2979954173569140e-07  1.5651872783749773e-07  7.9257550303803298e-08  0.0000000000000000e+00  0.0000000000000000e+00  -1.4578685164475607e-08  -2.7538208360275404e-08  -3.7372131017990885e-08  -4.2714740099853464e-08  -4.2402823209456219e-08  -3.5529377699078650e-08  -2.1487113266984397e-08  -4.1196540015293438e-18  2.8858425234763707e-08  6.4660769575024418e-08  1.0663574474277506e-07  1.5369205766598873e-07  2.0445536991203696e-07  2.5731695591140157e-07  3.1049223302069166e-07  3.6208694924514825e-07  4.1016851183845300e-07  4.5283973373420287e-07  4.8831217284013688e-07  5.1497624562883552e-07  5.3146541100033046e-07  5.3671193871369237e-07  5.2999209041155320e-07  5.1095893831207381e-07  4.7966151168033556e-07  4.3654947621334402e-07  3.8246309654472404e-07  3.1860878623282888e-07  2.4652109197849124e-07  1.6801247007718058e-07  8.5112676969303429e-08  0.0000000000000000e+00  0.0000000000000000e+00  -1.9938717267841410e-08  -3.8067257255051426e-08  -5.2701725671961533e-08  -6.2312417960511565e-08  -6.5591740557031014e-08  -6.1513318213462327e-08  -4.9379939829539632e-08  -2.8858425243758502e-08  -4.9098441227474771e-18  3.6754674977033032e-08  8.0586078346822030e-08  1.3032166268483557e-07  1.8447601113641670e-07  2.4130382224203645e-07  2.9886372886251982e-07  3.5509053310915196e-07  4.0787310764970631e-07  4.5513498748358864e-07  4.9491456402915087e-07  5.2544179952453170e-07  5.4520850413425316e-07  5.5302945604813356e-07  5.4809198715225824e-07  5.2999209041156474e-07  4.9875561327972757e-07  4.5484366473837484e-07  3.9914196040974136e-07  3.3293443792894612e-07  2.5786207071856812e-07  1.7586837089391481e-07  8.9133581740903290e-08  0.0000000000000000e+00  0.0000000000000000e+00  -2.6106405635371685e-08  -5.0219793266315681e-08  -7.0485522253267285e-08  -8.5215282419949383e-08  -9.2960592420550479e-08  -9.2576821819058329e-08  -8.3275203938737239e-08  -6.4660769584685067e-08  -3.6754674987579764e-08  -5.6638713344424656e-18  4.4749268372802380e-08  9.6255701441171300e-08  1.5294133989181013e-07  2.1294444788736075e-07  2.7418796877644300e-07  3.3445708433617923e-07  3.9148292198573059e-07  4.4302921014815798e-07  4.8697856029408804e-07  5.2141505991863538e-07  5.4469999362594329e-07  5.5553776457647580e-07  5.5302945604814817e-07  5.3671193871371799e-07  5.0658097561861354e-07  4.6309738287579987e-07  4.0717594669211722e-07  3.4015745217345220e-07  2.6376482187435912e-07  1.8004496849614675e-07  9.1298514342661673e-08  0.0000000000000000e+00  0.0000000000000000e+00  -3.2962489614675585e-08  -6.3759894250876371e-08  -9.0375713395636933e-08  -1.1097046735281090e-07  -1.2396014681124478e-07  -1.2808461489169702e-07  -1.2246326694441573e-07  -1.0663574475300571e-07  -8.0586078357991179e-08  -4.4749268384798768e-08  -6.3523172436006426e-18  5.2376129571358759e-08  1.1072781150891741e-07  1.7309795841912637e-07  2.3729610293594812e-07  3.0098050919333922e-07  3.6174686460515319e-07  4.1722015929412496e-07  4.6514623051570827e-07  5.0347945451573383e-07  5.3046320831617886e-07  5.4469999362596108e-07  5.4520850413428524e-07  5.3146541100037292e-07  5.0343022055278975e-07  4.6155220095519020e-07  4.0675905641596950e-07  3.4042772255577128e-07  2.6433833856097997e-07  1.8061309511345287e-07  9.1642237630268885e-08  0.0000000000000000e+00  0.0000000000000000e+00  -4.0345002780323725e-08  -7.8366451446845055e-08  -1.1189731288623967e-07  -1.3895669432508677e-07  -1.5783256386497020e-07  -1.6715394838656793e-07  -1.6594977757938834e-07  -1.5369205767668831e-07  -1.3032166269651682e-07  -9.6255701453717843e-08  -5.2376129584646171e-08  -6.9485349543485111e-18  5.9167545212074162e-08  1.2309577096495758e-07  1.8950396252712779e-07  2.5594727625405893e-07  3.1990954842008595e-07  3.7889950962947836e-07  4.3054671500042436e-07  4.7269350462302559e-07  5.0347945451575469e-07  5.2141505991867371e-07  5.2544179952458348e-07  5.1497624562889661e-07  4.8993649145767804e-07  4.5074983997726287e-07  3.9834141265055232e-07  3.3410406471740750e-07  2.5985070798856406e-07  1.7775081573583510e-07  9.0253491385147154e-08  0.0000000000000000e+00  0.0000000000000000e+00  -4.8054543865120600e-08  -9.3643636755904581e-08  -1.3446368510881126e-07  -1.6840467287767802e-07  -1.9363642187400670e-07  -2.0868395482373886e-07  -2.1248902005284348e-07  -2.0445536992310032e-07  -1.8447601114849520e-07  -1.5294133990478350e-07  -1.1072781152265698e-07  -5.9167545226444274e-08  -7.4297027785259156e-18  6.4692449961002536e-08  1.3256258955526513e-07  2.0108710720342872e-07  2.6766261587601599e-07  3.2970527248701600e-07  3.8475017438794860e-07  4.3054671500044797e-07  4.6514623051575247e-07  4.8697856029414903e-07  4.9491456402922435e-07  4.8831217284021830e-07  4.6704417881645521e-07  4.3150666420167828e-07  3.8260771078292093e-07  3.2173678393463717e-07  2.5071592541170010e-07  1.7173458614480465e-07  8.7270558253686684e-08  0.0000000000000000e+00  0.0000000000000000e+00  -5.5861146145812956e-08  -1.0913455514038257e-07  -1.5739682083249402e-07  -1.9842376930476620e-07  -2.3027948130648820e-07  -2.5139414673389828e-07  -2.6062772804490216e-07  -2.5731695592272047e-07  -2.4130382225439408e-07  -2.1294444790063408e-07  -1.7309795843318373e-07  -1.2309577097966017e-07  -6.4692449976205877e-08  -7.7776854295427326e-18  6.8591897262733798e-08  1.3850665234415734e-07  2.0707906781861317e-07  2.7165740087243640e-07  3.2970527248704183e-07  3.7889950962952749e-07  4.1722015929419405e-07  4.4302921014824290e-07  4.5513498748368483e-07  4.5283973373430542e-07  4.3596852908167755e-07  4.0487842009068207e-07  3.6044738160953910e-07  3.0404350939137383e-07  2.3747559850881386e-07  1.6292697662235392e-07  8.2875104096590369e-08  0.0000000000000000e+00  0.0000000000000000e+00  -6.3512490167262601e-08  -1.2433757478059584e-07  -1.7995160505251667e-07  -2.2803395041695445e-07  -2.6655796419897937e-07  -2.9387061725923664e-07  -3.0875772318801952e-07  -3.1049223303215599e-07  -2.9886372887503632e-07  -2.7418796878988706e-07  -2.3729610295018643e-07  -1.8950396254201979e-07  -1.3256258957066445e-07  -6.8591897278489815e-08  -7.9796973680563865e-18  7.0608696950936457e-08  1.4053312386421925e-07  2.0707906781864056e-07  2.6766261587606893e-07  3.1990954842016160e-07  3.6174686460524789e-07  3.9148292198583996e-07  4.0787310764982553e-07  4.1016851183857683e-07  3.9814572591813830e-07  3.7211660975082775e-07  3.3291764132046979e-07  2.8187924448676209e-07  2.2077625898350044e-07  1.5176144075896064e-07  7.7284532647024199e-08  0.0000000000000000e+00  0.0000000000000000e+00  -7.0743151361306488e-08  -1.3872472142960295e-07  -2.0134316445982342e-07  -2.5620180017122871e-07  -3.0120086911859335e-07  -3.3461820016987881e-07  -3.5517538970165757e-07  -3.6208694925664694e-07  -3.5509053312170615e-07  -3.3445708434966394e-07  -3.0098050920762067e-07  -2.5594727626899620e-07  -2.0108710721887493e-07  -1.3850665235996149e-07  -7.0608696966944731e-08  -8.0286990748222489e-18  7.0608696950964660e-08  1.3850665234421264e-07  2.0108710720350901e-07  2.5594727625416111e-07  3.0098050919345934e-07  3.3445708433631269e-07  3.5509053310929363e-07  3.6208694924529267e-07  3.5517538969147088e-07  3.3461820016095786e-07  3.0120086911102405e-07  2.5620180016508386e-07  2.0134316445516225e-07  1.3872472142647036e-07  7.0743151359732608e-08  0.0000000000000000e+00  0.0000000000000000e+00  -7.7284532648590217e-08  -1.5176144076207765e-07  -2.2077625898813845e-07  -2.8187924449287650e-07  -3.3291764132800171e-07  -3.7211660975970476e-07  -3.9814572592827485e-07  -4.1016851184987540e-07  -4.0787310766217728e-07  -3.9148292199912599e-07  -3.6174686461934025e-07  -3.1990954843492459e-07  -2.6766261589136036e-07  -2.0707906783431321e-07  -1.4053312388012221e-07  -7.0608696966916541e-08  -7.9235898374318268e-18  6.8591897262816476e-08  1.3256258955537201e-07  1.8950396252725553e-07  2.3729610293609254e-07  2.7418796877659923e-07  2.9886372886268261e-07  3.1049223302085540e-07  3.0875772317788086e-07  2.9387061725035762e-07  2.6655796419144549e-07  2.2803395041083834e-07  1.7995160504787723e-07  1.2433757477747778e-07  6.3512490165696013e-08  0.0000000000000000e+00  0.0000000000000000e+00  -8.2875104098133451e-08  -1.6292697662542531e-07  -2.3747559851338407e-07  -3.0404350939739889e-07  -3.6044738161696112e-07  -4.0487842009942959e-07  -4.3596852909166640e-07  -4.5283973374543951e-07  -4.5513498749585691e-07  -4.4302921016133580e-07  -4.1722015930808173e-07  -3.7889950964407623e-07  -3.2970527250211156e-07  -2.7165740088788199e-07  -2.0707906783428584e-07  -1.3850665235990622e-07  -6.8591897278407150e-08  -7.6692146943590697e-18  6.4692449961134197e-08  1.2309577096510888e-07  1.7309795841929299e-07  2.1294444788753768e-07  2.4130382224221819e-07  2.5731695591158241e-07  2.6062772803490918e-07  2.5139414672514674e-07  2.3027948129906239e-07  1.9842376929873773e-07  1.5739682082792102e-07  1.0913455513730913e-07  5.5861146144268756e-08  0.0000000000000000e+00  0.0000000000000000e+00  -8.7270558255191955e-08  -1.7173458614780085e-07  -2.5071592541615851e-07  -3.2173678394051494e-07  -3.8260771079016158e-07  -4.3150666421021219e-07  -4.6704417882620027e-07  -4.8831217285108076e-07  -4.9491456404109964e-07  -4.8697856030692271e-07  -4.6514623052930177e-07  -4.3054671501464234e-07  -3.8475017440265145e-07  -3.2970527250208572e-07  -2.6766261589130748e-07  -2.0108710721879470e-07  -1.3256258957055759e-07  -6.4692449976074203e-08  -7.2760247309868162e-18  5.9167545212246149e-08  1.1072781150910322e-07  1.5294133989200468e-07  1.8447601113661443e-07  2.0445536991223207e-07  2.1248902004309249e-07  2.0868395481519910e-07  1.9363642186676050e-07  1.6840467287179527e-07  1.3446368510434872e-07  9.3643636752905343e-08  4.8054543863613663e-08  0.0000000000000000e+00  0.0000000000000000e+00  -9.0253491386600146e-08  -1.7775081573872727e-07  -2.5985070799286773e-07  -3.3410406472308135e-07  -3.9834141265754188e-07  -4.5074983998550095e-07  -4.8993649146708539e-07  -5.1497624563938288e-07  -5.2544179953604754e-07  -5.2141505993100535e-07  -5.0347945452883521e-07  -4.7269350463672900e-07  -4.3054671501461873e-07  -3.7889950964402711e-07  -3.1990954843484899e-07  -2.5594727626889403e-07  -1.8950396254189208e-07  -1.2309577097950884e-07  -5.9167545226272287e-08  -6.7596654566782738e-18  5.2376129571559956e-08  9.6255701441379696e-08  1.3032166268504561e-07  1.5369205766619461e-07  1.6594977756997325e-07  1.6715394837832225e-07  1.5783256385797342e-07  1.3895669431940646e-07  1.1189731288193063e-07  7.8366451443948917e-08  4.0345002778868569e-08  0.0000000000000000e+00  0.0000000000000000e+00  -9.1642237631655610e-08  -1.8061309511621319e-07  -2.6433833856508750e-07  -3.4042772256118662e-07  -4.0675905642264068e-07  -4.6155220096305321e-07  -5.0343022056176893e-07  -5.3146541101038188e-07  -5.4520850414522774e-07  -5.4469999363773188e-07  -5.3046320832866455e-07  -5.0347945452881435e-07  -4.6514623052925762e-07  -4.1722015930801270e-07  -3.6174686461924559e-07  -3.0098050920750061e-07  -2.3729610295004204e-07  -1.7309795843301710e-07  -1.1072781152247115e-07  -5.2376129584444975e-08  -6.1402790777593266e-18  4.4749268373020160e-08  8.0586078347040062e-08  1.0663574474298766e-07  1.2246326693542731e-07  1.2808461488382488e-07  1.2396014680456489e-07  1.1097046734738775e-07  9.0375713391522907e-08  6.3759894248111272e-08  3.2962489613286239e-08  0.0000000000000000e+00  0.0000000000000000e+00  -9.1298514343968790e-08  -1.8004496849874865e-07  -2.6376482187823096e-07  -3.4015745217855700e-07  -4.0717594669840591e-07  -4.6309738288321210e-07  -5.0658097562707815e-07  -5.3671193872315351e-07  -5.5302945605846386e-07  -5.5553776458757235e-07  -5.4469999363771409e-07  -5.2141505993096702e-07  -4.8697856030686183e-07  -4.4302921016125094e-07  -3.9148292199901662e-07  -3.3445708434953048e-07  -2.7418796878973073e-07  -2.1294444790045713e-07  -1.5294133990458895e-07  -9.6255701453509446e-08  -4.4749268384580982e-08  -5.4416767850638267e-18  3.6754674977254293e-08  6.4660769575239220e-08  8.3275203930262092e-08  9.2576821811635634e-08  9.2960592414251862e-08  8.5215282414835686e-08  7.0485522249387953e-08  5.0219793263708269e-08  2.6106405634061547e-08  0.0000000000000000e+00  0.0000000000000000e+00  -8.9133581742118227e-08  -1.7586837089633330e-07  -2.5786207072216711e-07  -3.3293443793369125e-07  -3.9914196041558706e-07  -4.5484366474526503e-07  -4.9875561328759608e-07  -5.2999209042033598e-07  -5.4809198716184781e-07  -5.5302945605844915e-07  -5.4520850414519566e-07  -5.2544179953599577e-07  -4.9491456404102616e-07  -4.5513498749576077e-07  -4.0787310766205811e-07  -3.5509053312156443e-07  -2.9886372887487348e-07  -2.4130382225421229e-07  -1.8447601114829747e-07  -1.3032166269630678e-07  -8.0586078357773134e-08  -3.6754674987358496e-08  -4.6904578765810276e-18  2.8858425234975932e-08  4.9379939821659480e-08  6.1513318206560636e-08  6.5591740551174416e-08  6.2312417955756653e-08  5.2701725668354304e-08  3.8067257252626860e-08  1.9938717266623122e-08  0.0000000000000000e+00  0.0000000000000000e+00  -8.5112676970414524e-08  -1.6801247007939239e-07  -2.4652109198178276e-07  -3.1860878623716870e-07  -3.8246309655007056e-07  -4.3654947621964600e-07  -4.7966151168753248e-07  -5.1095893832009648e-07  -5.2999209042032454e-07  -5.3671193872312789e-07  -5.3146541101033953e-07  -5.1497624563932168e-07  -4.8831217285099934e-07  -4.5283973374533701e-07  -4.1016851184975163e-07  -3.6208694925650247e-07  -3.1049223303199225e-07  -2.5731695592253963e-07  -2.0445536992290518e-07  -1.5369205767648243e-07  -1.0663574475279311e-07  -6.4660769584470265e-08  -2.8858425243546284e-08  -3.9149602588357777e-18  2.1487113