<?xml version="1.0"?>
<VTKFile type="UnstructuredGrid"  version="0.1"  >
<UnstructuredGrid>
<Piece  NumberOfPoints="1089" NumberOfCells="2048">
<Points>
<DataArray  type="Float64"  NumberOfComponents="3"  format="ascii">0 0 0  0.03125 0 0  0.0625 0 0  0.09375 0 0  0.125 0 0  0.15625 0 0  0.1875 0 0  0.21875 0 0  0.25 0 0  0.28125 0 0  0.3125 0 0  0.34375 0 0  0.375 0 0  0.40625 0 0  0.4375 0 0  0.46875 0 0  0.5 0 0  0.53125 0 0  0.5625 0 0  0.59375 0 0  0.625 0 0  0.65625 0 0  0.6875 0 0  0.71875 0 0  0.75 0 0  0.78125 0 0  0.8125 0 0  0.84375 0 0  0.875 0 0  0.90625 0 0  0.9375 0 0  0.96875 0 0  1 0 0  0 0.03125 0  0.03125 0.03125 0  0.0625 0.03125 0  0.09375 0.03125 0  0.125 0.03125 0  0.15625 0.03125 0  0.1875 0.03125 0  0.21875 0.03125 0  0.25 0.03125 0  0.28125 0.03125 0  0.3125 0.03125 0  0.34375 0.03125 0  0.375 0.03125 0  0.40625 0.03125 0  0.4375 0.03125 0  0.46875 0.03125 0  0.5 0.03125 0  0.53125 0.03125 0  0.5625 0.03125 0  0.59375 0.03125 0  0.625 0.03125 0  0.65625 0.03125 0  0.6875 0.03125 0  0.71875 0.03125 0  0.75 0.03125 0  0.78125 0.03125 0  0.8125 0.03125 0  0.84375 0.03125 0  0.875 0.03125 0  0.90625 0.03125 0  0.9375 0.03125 0  0.96875 0.03125 0  1 0.03125 0  0 0.0625 0  0.03125 0.0625 0  0.0625 0.0625 0  0.09375 0.0625 0  0.125 0.0625 0  0.15625 0.0625 0  0.1875 0.0625 0  0.21875 0.0625 0  0.25 0.0625 0  0.28125 0.0625 0  0.3125 0.0625 0  0.34375 0.0625 0  0.375 0.0625 0  0.40625 0.0625 0  0.4375 0.0625 0  0.46875 0.0625 0  0.5 0.0625 0  0.53125 0.0625 0  0.5625 0.0625 0  0.59375 0.0625 0  0.625 0.0625 0  0.65625 0.0625 0  0.6875 0.0625 0  0.71875 0.0625 0  0.75 0.0625 0  0.78125 0.0625 0  0.8125 0.0625 0  0.84375 0.0625 0  0.875 0.0625 0  0.90625 0.0625 0  0.9375 0.0625 0  0.96875 0.0625 0  1 0.0625 0  0 0.09375 0  0.03125 0.09375 0  0.0625 0.09375 0  0.09375 0.09375 0  0.125 0.09375 0  0.15625 0.09375 0  0.1875 0.09375 0  0.21875 0.09375 0  0.25 0.09375 0  0.28125 0.09375 0  0.3125 0.09375 0  0.34375 0.09375 0  0.375 0.09375 0  0.40625 0.09375 0  0.4375 0.09375 0  0.46875 0.09375 0  0.5 0.09375 0  0.53125 0.09375 0  0.5625 0.09375 0  0.59375 0.09375 0  0.625 0.09375 0  0.65625 0.09375 0  0.6875 0.09375 0  0.71875 0.09375 0  0.75 0.09375 0  0.78125 0.09375 0  0.8125 0.09375 0  0.84375 0.09375 0  0.875 0.09375 0  0.90625 0.09375 0  0.9375 0.09375 0  0.96875 0.09375 0  1 0.09375 0  0 0.125 0  0.03125 0.125 0  0.0625 0.125 0  0.09375 0.125 0  0.125 0.125 0  0.15625 0.125 0  0.1875 0.125 0  0.21875 0.125 0  0.25 0.125 0  0.28125 0.125 0  0.3125 0.125 0  0.34375 0.125 0  0.375 0.125 0  0.40625 0.125 0  0.4375 0.125 0  0.46875 0.125 0  0.5 0.125 0  0.53125 0.125 0  0.5625 0.125 0  0.59375 0.125 0  0.625 0.125 0  0.65625 0.125 0  0.6875 0.125 0  0.71875 0.125 0  0.75 0.125 0  0.78125 0.125 0  0.8125 0.125 0  0.84375 0.125 0  0.875 0.125 0  0.90625 0.125 0  0.9375 0.125 0  0.96875 0.125 0  1 0.125 0  0 0.15625 0  0.03125 0.15625 0  0.0625 0.15625 0  0.09375 0.15625 0  0.125 0.15625 0  0.15625 0.15625 0  0.1875 0.15625 0  0.21875 0.15625 0  0.25 0.15625 0  0.28125 0.15625 0  0.3125 0.15625 0  0.34375 0.15625 0  0.375 0.15625 0  0.40625 0.15625 0  0.4375 0.15625 0  0.46875 0.15625 0  0.5 0.15625 0  0.53125 0.15625 0  0.5625 0.15625 0  0.59375 0.15625 0  0.625 0.15625 0  0.65625 0.15625 0  0.6875 0.15625 0  0.71875 0.15625 0  0.75 0.15625 0  0.78125 0.15625 0  0.8125 0.15625 0  0.84375 0.15625 0  0.875 0.15625 0  0.90625 0.15625 0  0.9375 0.15625 0  0.96875 0.15625 0  1 0.15625 0  0 0.1875 0  0.03125 0.1875 0  0.0625 0.1875 0  0.09375 0.1875 0  0.125 0.1875 0  0.15625 0.1875 0  0.1875 0.1875 0  0.21875 0.1875 0  0.25 0.1875 0  0.28125 0.1875 0  0.3125 0.1875 0  0.34375 0.1875 0  0.375 0.1875 0  0.40625 0.1875 0  0.4375 0.1875 0  0.46875 0.1875 0  0.5 0.1875 0  0.53125 0.1875 0  0.5625 0.1875 0  0.59375 0.1875 0  0.625 0.1875 0  0.65625 0.1875 0  0.6875 0.1875 0  0.71875 0.1875 0  0.75 0.1875 0  0.78125 0.1875 0  0.8125 0.1875 0  0.84375 0.1875 0  0.875 0.1875 0  0.90625 0.1875 0  0.9375 0.1875 0  0.96875 0.1875 0  1 0.1875 0  0 0.21875 0  0.03125 0.21875 0  0.0625 0.21875 0  0.09375 0.21875 0  0.125 0.21875 0  0.15625 0.21875 0  0.1875 0.21875 0  0.21875 0.21875 0  0.25 0.21875 0  0.28125 0.21875 0  0.3125 0.21875 0  0.34375 0.21875 0  0.375 0.21875 0  0.40625 0.21875 0  0.4375 0.21875 0  0.46875 0.21875 0  0.5 0.21875 0  0.53125 0.21875 0  0.5625 0.21875 0  0.59375 0.21875 0  0.625 0.21875 0  0.65625 0.21875 0  0.6875 0.21875 0  0.71875 0.21875 0  0.75 0.21875 0  0.78125 0.21875 0  0.8125 0.21875 0  0.84375 0.21875 0  0.875 0.21875 0  0.90625 0.21875 0  0.9375 0.21875 0  0.96875 0.21875 0  1 0.21875 0  0 0.25 0  0.03125 0.25 0  0.0625 0.25 0  0.09375 0.25 0  0.125 0.25 0  0.15625 0.25 0  0.1875 0.25 0  0.21875 0.25 0  0.25 0.25 0  0.28125 0.25 0  0.3125 0.25 0  0.34375 0.25 0  0.375 0.25 0  0.40625 0.25 0  0.4375 0.25 0  0.46875 0.25 0  0.5 0.25 0  0.53125 0.25 0  0.5625 0.25 0  0.59375 0.25 0  0.625 0.25 0  0.65625 0.25 0  0.6875 0.25 0  0.71875 0.25 0  0.75 0.25 0  0.78125 0.25 0  0.8125 0.25 0  0.84375 0.25 0  0.875 0.25 0  0.90625 0.25 0  0.9375 0.25 0  0.96875 0.25 0  1 0.25 0  0 0.28125 0  0.03125 0.28125 0  0.0625 0.28125 0  0.09375 0.28125 0  0.125 0.28125 0  0.15625 0.28125 0  0.1875 0.28125 0  0.21875 0.28125 0  0.25 0.28125 0  0.28125 0.28125 0  0.3125 0.28125 0  0.34375 0.28125 0  0.375 0.28125 0  0.40625 0.28125 0  0.4375 0.28125 0  0.46875 0.28125 0  0.5 0.28125 0  0.53125 0.28125 0  0.5625 0.28125 0  0.59375 0.28125 0  0.625 0.28125 0  0.65625 0.28125 0  0.6875 0.28125 0  0.71875 0.28125 0  0.75 0.28125 0  0.78125 0.28125 0  0.8125 0.28125 0  0.84375 0.28125 0  0.875 0.28125 0  0.90625 0.28125 0  0.9375 0.28125 0  0.96875 0.28125 0  1 0.28125 0  0 0.3125 0  0.03125 0.3125 0  0.0625 0.3125 0  0.09375 0.3125 0  0.125 0.3125 0  0.15625 0.3125 0  0.1875 0.3125 0  0.21875 0.3125 0  0.25 0.3125 0  0.28125 0.3125 0  0.3125 0.3125 0  0.34375 0.3125 0  0.375 0.3125 0  0.40625 0.3125 0  0.4375 0.3125 0  0.46875 0.3125 0  0.5 0.3125 0  0.53125 0.3125 0  0.5625 0.3125 0  0.59375 0.3125 0  0.625 0.3125 0  0.65625 0.3125 0  0.6875 0.3125 0  0.71875 0.3125 0  0.75 0.3125 0  0.78125 0.3125 0  0.8125 0.3125 0  0.84375 0.3125 0  0.875 0.3125 0  0.90625 0.3125 0  0.9375 0.3125 0  0.96875 0.3125 0  1 0.3125 0  0 0.34375 0  0.03125 0.34375 0  0.0625 0.34375 0  0.09375 0.34375 0  0.125 0.34375 0  0.15625 0.34375 0  0.1875 0.34375 0  0.21875 0.34375 0  0.25 0.34375 0  0.28125 0.34375 0  0.3125 0.34375 0  0.34375 0.34375 0  0.375 0.34375 0  0.40625 0.34375 0  0.4375 0.34375 0  0.46875 0.34375 0  0.5 0.34375 0  0.53125 0.34375 0  0.5625 0.34375 0  0.59375 0.34375 0  0.625 0.34375 0  0.65625 0.34375 0  0.6875 0.34375 0  0.71875 0.34375 0  0.75 0.34375 0  0.78125 0.34375 0  0.8125 0.34375 0  0.84375 0.34375 0  0.875 0.34375 0  0.90625 0.34375 0  0.9375 0.34375 0  0.96875 0.34375 0  1 0.34375 0  0 0.375 0  0.03125 0.375 0  0.0625 0.375 0  0.09375 0.375 0  0.125 0.375 0  0.15625 0.375 0  0.1875 0.375 0  0.21875 0.375 0  0.25 0.375 0  0.28125 0.375 0  0.3125 0.375 0  0.34375 0.375 0  0.375 0.375 0  0.40625 0.375 0  0.4375 0.375 0  0.46875 0.375 0  0.5 0.375 0  0.53125 0.375 0  0.5625 0.375 0  0.59375 0.375 0  0.625 0.375 0  0.65625 0.375 0  0.6875 0.375 0  0.71875 0.375 0  0.75 0.375 0  0.78125 0.375 0  0.8125 0.375 0  0.84375 0.375 0  0.875 0.375 0  0.90625 0.375 0  0.9375 0.375 0  0.96875 0.375 0  1 0.375 0  0 0.40625 0  0.03125 0.40625 0  0.0625 0.40625 0  0.09375 0.40625 0  0.125 0.40625 0  0.15625 0.40625 0  0.1875 0.40625 0  0.21875 0.40625 0  0.25 0.40625 0  0.28125 0.40625 0  0.3125 0.40625 0  0.34375 0.40625 0  0.375 0.40625 0  0.40625 0.40625 0  0.4375 0.40625 0  0.46875 0.40625 0  0.5 0.40625 0  0.53125 0.40625 0  0.5625 0.40625 0  0.59375 0.40625 0  0.625 0.40625 0  0.65625 0.40625 0  0.6875 0.40625 0  0.71875 0.40625 0  0.75 0.40625 0  0.78125 0.40625 0  0.8125 0.40625 0  0.84375 0.40625 0  0.875 0.40625 0  0.90625 0.40625 0  0.9375 0.40625 0  0.96875 0.40625 0  1 0.40625 0  0 0.4375 0  0.03125 0.4375 0  0.0625 0.4375 0  0.09375 0.4375 0  0.125 0.4375 0  0.15625 0.4375 0  0.1875 0.4375 0  0.21875 0.4375 0  0.25 0.4375 0  0.28125 0.4375 0  0.3125 0.4375 0  0.34375 0.4375 0  0.375 0.4375 0  0.40625 0.4375 0  0.4375 0.4375 0  0.46875 0.4375 0  0.5 0.4375 0  0.53125 0.4375 0  0.5625 0.4375 0  0.59375 0.4375 0  0.625 0.4375 0  0.65625 0.4375 0  0.6875 0.4375 0  0.71875 0.4375 0  0.75 0.4375 0  0.78125 0.4375 0  0.8125 0.4375 0  0.84375 0.4375 0  0.875 0.4375 0  0.90625 0.4375 0  0.9375 0.4375 0  0.96875 0.4375 0  1 0.4375 0  0 0.46875 0  0.03125 0.46875 0  0.0625 0.46875 0  0.09375 0.46875 0  0.125 0.46875 0  0.15625 0.46875 0  0.1875 0.46875 0  0.21875 0.46875 0  0.25 0.46875 0  0.28125 0.46875 0  0.3125 0.46875 0  0.34375 0.46875 0  0.375 0.46875 0  0.40625 0.46875 0  0.4375 0.46875 0  0.46875 0.46875 0  0.5 0.46875 0  0.53125 0.46875 0  0.5625 0.46875 0  0.59375 0.46875 0  0.625 0.46875 0  0.65625 0.46875 0  0.6875 0.46875 0  0.71875 0.46875 0  0.75 0.46875 0  0.78125 0.46875 0  0.8125 0.46875 0  0.84375 0.46875 0  0.875 0.46875 0  0.90625 0.46875 0  0.9375 0.46875 0  0.96875 0.46875 0  1 0.46875 0  0 0.5 0  0.03125 0.5 0  0.0625 0.5 0  0.09375 0.5 0  0.125 0.5 0  0.15625 0.5 0  0.1875 0.5 0  0.21875 0.5 0  0.25 0.5 0  0.28125 0.5 0  0.3125 0.5 0  0.34375 0.5 0  0.375 0.5 0  0.40625 0.5 0  0.4375 0.5 0  0.46875 0.5 0  0.5 0.5 0  0.53125 0.5 0  0.5625 0.5 0  0.59375 0.5 0  0.625 0.5 0  0.65625 0.5 0  0.6875 0.5 0  0.71875 0.5 0  0.75 0.5 0  0.78125 0.5 0  0.8125 0.5 0  0.84375 0.5 0  0.875 0.5 0  0.90625 0.5 0  0.9375 0.5 0  0.96875 0.5 0  1 0.5 0  0 0.53125 0  0.03125 0.53125 0  0.0625 0.53125 0  0.09375 0.53125 0  0.125 0.53125 0  0.15625 0.53125 0  0.1875 0.53125 0  0.21875 0.53125 0  0.25 0.53125 0  0.28125 0.53125 0  0.3125 0.53125 0  0.34375 0.53125 0  0.375 0.53125 0  0.40625 0.53125 0  0.4375 0.53125 0  0.46875 0.53125 0  0.5 0.53125 0  0.53125 0.53125 0  0.5625 0.53125 0  0.59375 0.53125 0  0.625 0.53125 0  0.65625 0.53125 0  0.6875 0.53125 0  0.71875 0.53125 0  0.75 0.53125 0  0.78125 0.531
[...]
<PointData  Scalars="phi"> 
<DataArray  type="Float64"  Name="phi"  format="ascii">0.0000000000000000e+00  0.0000000000000000e+00  0.0000000000000000e+00  0.0000000000000000e+00  0.0000000000000000e+00  0.0000000000000000e+00  0.0000000000000000e+00  0.0000000000000000e+00  0.0000000000000000e+00  0.0000000000000000e+00  0.0000000000000000e+00  0.0000000000000000e+00  0.0000000000000000e+00  0.0000000000000000e+00  0.0000000000000000e+00  0.0000000000000000e+00  0.0000000000000000e+00  0.0000000000000000e+00  0.0000000000000000e+00  0.0000000000000000e+00  0.0000000000000000e+00  0.0000000000000000e+00  0.0000000000000000e+00  0.0000000000000000e+00  0.0000000000000000e+00  0.0000000000000000e+00  0.0000000000000000e+00  0.0000000000000000e+00  0.0000000000000000e+00  0.0000000000000000e+00  0.0000000000000000e+00  0.0000000000000000e+00  0.0000000000000000e+00  0.0000000000000000e+00  -3.6221385215309447e-20  3.1377815068410950e-11  1.2363622088387207e-10  3.0320282253202094e-10  5.9217678181854690e-10  1.0072299776309472e-09  1.5587183730764643e-09  2.2500446696969671e-09  3.0773011423431279e-09  4.0292096430675762e-09  5.0873637249084055e-09  6.2267658185958952e-09  7.4166407373838388e-09  8.6214958840932630e-09  9.8023887862874570e-09  1.0918354354991936e-08  1.1927937862295863e-08  1.2790775309620390e-08  1.3469160780403141e-08  1.3929540623849108e-08  1.4143876899842733e-08  1.4090827345487092e-08  1.3756696043080464e-08  1.3136117764052423e-08  1.2232449401833286e-08  1.1057853821133947e-08  9.6330749392432168e-09  7.9869188372680828e-09  6.1554776351117900e-09  4.1811725221541483e-09  2.1117907434392187e-09  0.0000000000000000e+00  0.0000000000000000e+00  -3.1377815212469390e-11  -1.4327214490272288e-19  1.5306786018271236e-10  4.8069498449548621e-10  1.0271564813553394e-09  1.8259311695343819e-09  2.8979240443378022e-09  4.2501911684405340e-09  5.8752231982929925e-09  7.7508209336421107e-09  9.8405726298869368e-09  1.2094919012646123e-08  1.4452768776852078e-08  1.6843605669997613e-08  1.9190008855466329e-08  2.1410491859900187e-08  2.3422552654002262e-08  2.5145818790441343e-08  2.6505167362581858e-08  2.7433700023284442e-08  2.7875458411331141e-08  2.7787774902675065e-08  2.7143167308273837e-08  2.5930703525620813e-08  2.4156782683446664e-08  2.1845302469934513e-08  1.9037207737344192e-08  1.5789443214491207e-08  1.2173364233763778e-08  8.2726959095534097e-09  4.1811725221541607e-09  0.0000000000000000e+00  0.0000000000000000e+00  -1.2363622109806485e-10  -1.5306786060882127e-10  -3.1685605054321369e-19  4.1489781715770670e-10  1.1581915810206281e-09  2.2803835495592755e-09  3.8132515145044002e-09  5.7679388258644384e-09  8.1338773418965384e-09  1.0878592400784038e-08  1.3948404119750095e-08  1.7270004091043406e-08  2.0752852164661772e-08  2.4292305772436974e-08  2.7773365377295660e-08  3.1074895226200024e-08  3.4074159581849807e-08  3.6651501740520261e-08  3.8694986913680192e-08  4.0104830710811474e-08  4.0797442502419518e-08  4.0708927101420804e-08  3.9797908472084516e-08  3.8047564838305514e-08  3.5466794722656035e-08  3.2090467085324744e-08  2.7978744747264751e-08  2.3215507460483810e-08  1.7905937642142194e-08  1.2173364233763838e-08  6.1554776351118371e-09  0.0000000000000000e+00  0.0000000000000000e+00  -3.0320282281420296e-10  -4.8069498505690279e-10  -4.1489781799270727e-10  -5.5014185456752836e-19  8.5299636003806579e-10  2.2118984474824991e-09  4.1197924671830202e-09  6.5925062644489532e-09  9.6171720773348009e-09  1.3151953679566633e-08  1.7126956632785282e-08  2.1446294084831372e-08  2.5991235308093074e-08  3.0624321704615683e-08  3.5194296941651311e-08  3.9541665685204629e-08  4.3504670310427152e-08  4.6925457957028495e-08  4.9656202028454731e-08  5.1564943035944264e-08  5.2540923548211468e-08  5.2499210566167602e-08  5.1384425212184505e-08  4.9173433213989946e-08  4.5876889013047704e-08  4.1539569933457120e-08  3.6239482963037636e-08  3.0085773232494006e-08  2.3215507460483972e-08  1.5789443214491396e-08  7.9869188372682002e-09  0.0000000000000000e+00  0.0000000000000000e+00  -5.9217678216592150e-10  -1.0271564820465044e-09  -1.1581915820486577e-09  -8.5299636139276202e-10  -8.3399669660244627e-19  1.4862285620448161e-09  3.6606026554250500e-09  6.5443656445369639e-09  1.0123296068724019e-08  1.4347349099846870e-08  1.9131757387833193e-08  2.4359557466649461e-08  2.9885452221239690e-08  3.5540867619765472e-08  4.1140015015309629e-08  4.6486730627159451e-08  5.1381832857292398e-08  5.5630717081528175e-08  5.9050897295376562e-08  6.1479204898466194e-08  6.2778366947429009e-08  6.2842708946322760e-08  6.1602759814496346e-08  5.9028577827755456e-08  5.5131664474026748e-08  4.9965386388565117e-08  4.3623881626708626e-08  3.6239482963037967e-08  2.7978744747265204e-08  1.9037207737344593e-08  9.6330749392434467e-09  0.0000000000000000e+00  0.0000000000000000e+00  -1.0072299780400898e-09  -1.8259311703484843e-09  -2.2803835507702100e-09  -2.2118984490782748e-09  -1.4862285640096994e-09  -1.1573381652369154e-18  2.3140916471920129e-09  5.4835320189160260e-09  9.4938406440711203e-09  1.4288118724009493e-08  1.9768319417336671e-08  2.5798201028670915e-08  3.2207857906186463e-08  3.8799662213568315e-08  4.5355394436953902e-08  5.1644293655971854e-08  5.7431722061285512e-08  6.2488113354801425e-08  6.6597862489183961e-08  6.9567815170157665e-08  7.1235029632158465e-08  7.1473509872765664e-08  7.0199647772551881e-08  6.7376159857296196e-08  6.3014360991692973e-08  5.7174679784164568e-08  4.9965386388565699e-08  4.1539569933457987e-08  3.2090467085325644e-08  2.1845302469935227e-08  1.1057853821134341e-08  0.0000000000000000e+00  0.0000000000000000e+00  -1.5587183735433555e-09  -2.8979240452668460e-09  -3.8132515158863485e-09  -4.1197924690042106e-09  -3.6606026576675445e-09  -2.3140916498337805e-09  -1.5075702013504120e-18  3.3162774353645181e-09  7.6211996576705757e-09  1.2852525904556712e-08  1.8900731987495993e-08  2.5612351750684667e-08  3.2795123948072946e-08  4.0224754406331994e-08  4.7653040141204690e-08  5.4817048551873169e-08  6.1449003004983446e-08  6.7286497655876604e-08  7.2082650344934764e-08  7.5615803401131742e-08  7.7698398154222227e-08  7.8184679294371923e-08  7.6976928758450842e-08  7.4029983883327250e-08  6.9353859006923295e-08  6.3014360991693886e-08  5.5131664474028184e-08  4.5876889013049326e-08  3.5466794722657531e-08  2.4156782683447803e-08  1.2232449401833897e-08  0.0000000000000000e+00  0.0000000000000000e+00  -2.2500446702170321e-09  -4.2501911694754163e-09  -5.7679388274038637e-09  -6.5925062664777228e-09  -6.5443656470351122e-09  -5.4835320218590246e-09  -3.3162774387235253e-09  -1.8710766313337454e-18  4.4539507598346520e-09  9.9796118978330244e-09  1.6457944345834056e-08  2.3720520146689537e-08  3.1555226696946067e-08  3.9713776558304842e-08  4.7920740868717559e-08  5.5883764621100789e-08  6.3304575374616246e-08  6.9890365129181497e-08  7.5365109363244665e-08  7.9480388223025283e-08  8.2025292529561050e-08  8.2835030965215567e-08  8.1797903221274845e-08  7.8860365168235732e-08  7.4029983883328560e-08  6.7376159857298366e-08  5.9028577827758037e-08  4.9173433213992546e-08  3.8047564838307784e-08  2.5930703525622484e-08  1.3136117764053305e-08  0.0000000000000000e+00  0.0000000000000000e+00  -3.0773011429112810e-09  -5.8752231994235962e-09  -8.1338773435783901e-09  -9.6171720795513190e-09  -1.0123296071453407e-08  -9.4938406472865946e-09  -7.6211996613406338e-09  -4.4539507639233999e-09  -2.2337548227574854e-18  5.6726419135319276e-09  1.2437491721231311e-08  2.0113580832674385e-08  2.8471653026267865e-08  3.7242342018130654e-08  4.6126021145445446e-08  5.4803951958916980e-08  6.2950307352186075e-08  7.0244609932784593e-08  7.6384109014758255e-08  8.1095620563543538e-08  8.4146373621920555e-08  8.5353443461990592e-08  8.4591404536962987e-08  8.1797903221276619e-08  7.6976928758453860e-08  7.0199647772555626e-08  6.1602759814500342e-08  5.1384425212188297e-08  3.9797908472087726e-08  2.7143167308276149e-08  1.3756696043081672e-08  0.0000000000000000e+00  0.0000000000000000e+00  -4.0292096436782737e-09  -7.7508209348574028e-09  -1.0878592402591908e-08  -1.3151953681949276e-08  -1.4347349102780872e-08  -1.4288118727466077e-08  -1.2852525908502029e-08  -9.9796119022284968e-09  -5.6726419183346400e-09  -2.5815668555278595e-18  6.9065112270629061e-09  1.4855909536293851e-08  2.3604655889209217e-08  3.2865413756443607e-08  4.2317614431348363e-08  5.1619427366018859e-08  6.0420679372685903e-08  6.8376228836334110e-08  7.5159282310148018e-08  8.0474141747886621e-08  8.4067891142339384e-08  8.5740570707664888e-08  8.5353443461992842e-08  8.2835030965219524e-08  7.8184679294377018e-08  7.1473509872771315e-08  6.2842708946328438e-08  5.2499210566172796e-08  4.0708927101425099e-08  2.7787774902678119e-08  1.4090827345488677e-08  0.0000000000000000e+00  0.0000000000000000e+00  -5.0873637255556992e-09  -9.8405726311750804e-09  -1.3948404121666373e-08  -1.7126956635310843e-08  -1.9131757390943240e-08  -1.9768319421000714e-08  -1.8900731991678158e-08  -1.6457944350493465e-08  -1.2437491726322479e-08  -6.9065112325362097e-09  -2.9010886134483202e-18  8.0836254998832661e-09  1.7089505622096460e-08  2.6715587469757567e-08  3.6623798756768781e-08  4.6452720723852647e-08  5.5831276647796611e-08  6.4392912325985101e-08  7.1789724856917439e-08  7.7705996823483148e-08  8.1870614601620935e-08  8.4067891142342124e-08  8.4146373621925492e-08  8.2025292529567588e-08  7.7698398154229718e-08  7.1235029632166300e-08  6.2778366947436579e-08  5.2540923548218245e-08  4.0797442502425031e-08  2.7875458411335025e-08  1.4143876899844738e-08  0.0000000000000000e+00  0.0000000000000000e+00  -6.2267658192734918e-09  -1.2094919013994596e-08  -1.7270004093049464e-08  -2.1446294087475303e-08  -2.4359557469905320e-08  -2.5798201032506797e-08  -2.5612351755063034e-08  -2.3720520151567596e-08  -2.0113580838004531e-08  -1.4855909542024142e-08  -8.0836255059579399e-09  -3.1800212046626543e-18  9.1317988014920823e-09  1.8998351374454044e-08  2.9247656835515441e-08  3.9502382980201457e-08  4.9374190207510972e-08  5.8478581056783268e-08  6.6449705877532822e-08  7.2954555819834264e-08  7.7705996823486364e-08  8.0474141747892524e-08  8.1095620563551519e-08  7.9480388223034693e-08  7.5615803401141894e-08  6.9567815170167895e-08  6.1479204898475842e-08  5.1564943035952754e-08  4.0104830710818303e-08  2.7433700023289224e-08  1.3929540623851565e-08  0.0000000000000000e+00  0.0000000000000000e+00  -7.4166407380851639e-09  -1.4452768778247795e-08  -2.0752852166738148e-08  -2.5991235310829718e-08  -2.9885452224609769e-08  -3.2207857910156970e-08  -3.2795123952605029e-08  -3.1555226701995456e-08  -2.8471653031785286e-08  -2.3604655895140906e-08  -1.7089505628384710e-08  -9.1317988080758047e-09  -3.4076722667268992e-18  9.9845013834210502e-09  2.0459440935648041e-08  3.1035375868191814e-08  4.1310504712425184e-08  5.0886042372276410e-08  5.9381560777324347e-08  6.6449705877536448e-08  7.1789724856924242e-08  7.5159282310157401e-08  7.6384109014769557e-08  7.5365109363257185e-08  7.2082650344947761e-08  6.6597862489196719e-08  5.9050897295388408e-08  4.9656202028465028e-08  3.8694986913688411e-08  2.6505167362587572e-08  1.3469160780406071e-08  0.0000000000000000e+00  0.0000000000000000e+00  -8.6214958848115238e-09  -1.6843605671427054e-08  -2.4292305774563556e-08  -3.0624321707418541e-08  -3.5540867623217138e-08  -3.8799662217634993e-08  -4.0224754410973913e-08  -3.9713776563476660e-08  -3.7242342023781919e-08  -3.2865413762519262e-08  -2.6715587476198505e-08  -1.8998351381197700e-08  -9.9845013904020278e-09  -3.5753558828073148e-18  1.0586334163061229e-08  2.1376835518537467e-08  3.1960162904370085e-08  4.1927051718374038e-08  5.0886042372280380e-08  5.8478581056790825e-08  6.4392912325995716e-08  6.8376228836347173e-08  7.0244609932799390e-08  6.9890365129197273e-08  6.7286497655892565e-08  6.2488113354816817e-08  5.5630717081542270e-08  4.6925457957040638e-08  3.6651501740529889e-08  2.5145818790448010e-08  1.2790775309623799e-08  0.0000000000000000e+00  0.0000000000000000e+00  -9.8023887870157084e-09  -1.9190008856915682e-08  -2.7773365379451888e-08  -3.5194296944493279e-08  -4.1140015018809503e-08  -4.5355394441077437e-08  -4.7653040145911572e-08  -4.7920740873961818e-08  -4.6126021151175935e-08  -4.2317614437509251e-08  -3.6623798763300153e-08  -2.9247656842353856e-08  -2.0459440942727182e-08  -1.0586334170312566e-08  -3.6767259757945175e-18  1.0897602932302505e-08  2.1689597018695216e-08  3.1960162904374293e-08  4.1310504712433316e-08  4.9374190207522599e-08  5.5831276647811163e-08  6.0420679372702711e-08  6.2950307352204392e-08  6.3304575374635278e-08  6.1449003005002359e-08  5.7431722061303512e-08  5.1381832857308723e-08  4.3504670310441108e-08  3.4074159581860818e-08  2.3422552654009865e-08  1.1927937862299744e-08  0.0000000000000000e+00  0.0000000000000000e+00  -1.0918354355723155e-08  -2.1410491861355459e-08  -3.1074895228365100e-08  -3.9541665688058290e-08  -4.6486730630673778e-08  -5.1644293660112469e-08  -5.4817048556599600e-08  -5.5883764626366885e-08  -5.4803951964671404e-08  -5.1619427372205555e-08  -4.6452720730411435e-08  -3.9502382987068651e-08  -3.1035375875300822e-08  -2.1376835525819466e-08  -1.0897602939687127e-08  -3.7079999005884065e-18  1.0897602932306839e-08  2.1376835518545967e-08  3.1035375868204155e-08  3.9502382980217167e-08  4.6452720723871117e-08  5.1619427366039380e-08  5.4803951958938758e-08  5.5883764621122990e-08  5.4817048551894947e-08  5.1644293655992369e-08  4.6486730627177914e-08  3.9541665685220326e-08  3.1074895226212359e-08  2.1410491859908681e-08  1.0918354354996264e-08  0.0000000000000000e+00  0.0000000000000000e+00  -1.1927937863023004e-08  -2.3422552655449444e-08  -3.4074159584002872e-08  -4.3504670313265030e-08  -5.1381832860787322e-08  -5.7431722065403323e-08  -6.1449003009683897e-08  -6.3304575379853477e-08  -6.2950307357909000e-08  -6.0420679378838803e-08  -5.5831276654319651e-08  -4.9374190214340804e-08  -4.1310504719495593e-08  -3.1960162911612620e-08  -2.1689597026039892e-08  -1.0897602939682794e-08  -3.6681007022730630e-18  1.0586334163073940e-08  2.0459440935664469e-08  2.9247656835535078e-08  3.6623798756790990e-08  4.2317614431372385e-08  4.6126021145470473e-08  4.7920740868742719e-08  4.7653040141229115e-08  4.5355394436976725e-08  4.1140015015330044e-08  3.5194296941668596e-08  2.7773365377309192e-08  1.9190008855475630e-08  9.8023887862921901e-09  0.0000000000000000e+00  0.0000000000000000e+00  -1.2790775310336467e-08  -2.5145818791866526e-08  -3.6651501742640629e-08  -4.6925457959823314e-08  -5.5630717084970119e-08  -6.2488113358856860e-08  -6.7286497660505904e-08  -6.9890365134339518e-08  -7.0244609938421028e-08  -6.8376228842394088e-08  -6.4392912332409701e-08  -5.8478581063510099e-08  -5.0886042379240252e-08  -4.1927051725507484e-08  -3.1960162911608411e-08  -2.1376835525810969e-08  -1.0586334170299857e-08  -3.5586814197566219e-18  9.9845013834412897e-09  1.8998351374477304e-08  2.6715587469783183e-08  3.2865413756470804e-08  3.7242342018158593e-08  3.9713776558332635e-08  4.0224754406358755e-08  3.8799662213593170e-08  3.5540867619787594e-08  3.0624321704634344e-08  2.4292305772451545e-08  1.6843605670007606e-08  8.6214958840983452e-09  0.0000000000000000e+00  0.0000000000000000e+00  -1.3469160781101285e-08  -2.6505167363971369e-08  -3.8694986915747521e-08  -4.9656202031179676e-08  -5.9050897298732500e-08  -6.6597862493138096e-08  -7.2082650349448510e-08  -7.5365109368273976e-08  -7.6384109020254109e-08  -7.5159282316056920e-08  -7.1789724863181936e-08  -6.6449705884092086e-08  -5.9381560784114785e-08  -5.0886042379236281e-08  -4.1310504719487460e-08  -3.1035375875288481e-08  -2.0459440942710751e-08  -9.9845013903817883e-09  -3.3840487587536139e-18  9.1317988015185190e-09  1.7089505622125027e-08  2.3604655889239124e-08  2.8471653026298259e-08  3.1555226696976057e-08  3.2795123948101633e-08  3.2207857906212972e-08  2.9885452221263195e-08  2.5991235308112833e-08  2.0752852164677171e-08  1.4452768776862625e-08  7.4166407373891964e-09  0.0000000000000000e+00  0.0000000000000000e+00  -1.3929540624522635e-08  -2.7433700024624978e-08  -4.0104830712805958e-08  -5.1564943038573242e-08  -6.1479204901703990e-08  -6.9567815173972661e-08  -7.5615803405486696e-08  -7.9480388227877723e-08  -8.1095620568846190e-08  -8.0474141753587867e-08  -7.7705996829527562e-08  -7.2954555826163148e-08  -6.6449705884088460e-08  -5.8478581063502556e-08  -4.9374190214329184e-08  -3.9502382987052947e-08  -2.9247656842334218e-08  -1.8998351381174440e-08  -9.1317988080493647e-09  -3.1509889684501279e-18  8.0836254999141944e-09  1.4855909536325888e-08  2.0113580832706671e-08  2.3720520146721185e-08  2.5612351750714780e-08  2.5798201028698623e-08  2.4359557466673949e-08  2.1446294084851909e-08  1.7270004091059377e-08  1.2094919012657050e-08  6.2267658186014423e-09  0.0000000000000000e+00  0.0000000000000000e+00  -1.4143876900485204e-08  -2.7875458412609892e-08  -4.0797442504322113e-08  -5.2540923550719361e-08  -6.2778366950517714e-08  -7.1235029635797848e-08  -7.7698398158376778e-08  -8.2025292534190257e-08  -8.4146373626979314e-08  -8.4067891147778461e-08  -8.1870614607387456e-08  -7.7705996829524359e-08  -7.1789724863175160e-08  -6.4392912332399086e-08  -5.5831276654305100e-08  -4.6452720730392973e-08  -3.6623798763277952e-08  -2.6715587476172892e-08  -1.7089505628356146e-08  -8.0836255059270100e-09  -2.8684933481967156e-18  6.9065112270963837e-09  1.2437491721264827e-08  1.6457944345866733e-08  1.8900731987526956e-08  1.9768319417365063e-08  1.9131757387858217e-08  1.7126956632806226e-08  1.3948404119766361e-08  9.8405726298980525e-09  5.0873637249140452e-09  0.0000000000000000e+00  0.0000000000000000e+00  -1.4090827346092380e-08  -2.7787774903879831e-08  -4.0708927103213357e-08  -5.2499210568530473e-08  -6.2842708949232914e-08  -7.1473509876194704e-08  -7.8184679298286420e-08  -8.2835030969577349e-08  -8.5353443466757164e-08  -8.5740570712789874e-08  -8.4067891147775721e-08  -8.0474141753581978e-08  -7.5159282316047563e-08  -6.8376228842381052e-08  -6.0420679378821995e-08  -5.1619427372185041e-08  -4.2317614437485230e-08  -3.2865413762492064e-08  -2.3604655895110998e-08  -1.4855909541992107e-08  -6.9065112325027320e-09  -2.5474115704419502e-18  5.6726419135659396e-09  9.9796118978660438e-09  1.2852525904587887e-08  1.4288118724037999e-08  1.4347349099871941e-08  1.3151953679587582e-08  1.0878592400800286e-08  7.7508209336532048e-09  4.0292096430732027e-09  0.0000000000000000e+00  0.0000000000000000e+00  -1.3756696043642806e-08  -2.7143167309393148e-08  -3.9797908473749955e-08  -5.1384425214379862e-08  -6.1602759817200220e-08  -7.0199647775737929e-08  -7.6976928762088002e-08  -8.1797903225327659e-08  -8.4591404541391963e-08  -8.5353443466754927e-08  -8.4146373626974391e-08  -8.1095620568838222e-08  -7.6384109020242819e-08  -7.0244609938406258e-08  -6.2950307357890697e-08  -5.4803951964649619e-08  -4.6126021151150908e-08  -3.7242342023753974e-08  -2.8471653031754885e-08  -2.0113580837972245e-08  -1.2437491726288962e-08  -5.6726419183006272e-09  -2.2000314260283013e-18  4.4539507598672735e-09  7.6211996577012856e-09  9.4938406440991385e-09  1.0123296068748614e-08  9.6171720773553249e-09  8.1338773419124401e-09  5.8752231983038418e-09  3.0773011423486282e-09  0.0000000000000000e+00  0.0000000000000000e+00  -1.3136117764566478e-08  -2.5930703526644036e-08  -3.8047564839828016e-08  -4.9173433215996924e-08  -5.9028577830227370e-08  -6.7376159860208970e-08  -7.4029983886652476e-08  -7.8860365171941024e-08  -8.1797903225325899e-08  -8.2835030969573405e-08  -8.2025292534183746e-08  -7.9480388227868339e-08  -7.5365109368261469e-08  -6.9890365134323768e-08  -6.3304575379834445e-08  -5.5883764626344684e-08  -4.7920740873936652e-08  -3.9713776563448860e-08  -3.1555226701965459e-08  -2.3720520151535948e-08  -1.6457944350460785e-08  -9.9796119021954774e-09  -4.4539507638907776e-09  -1.8396101134995652e-18  3.3162774