<?xml version="1.0"?>
<VTKFile type="UnstructuredGrid"  version="0.1"  >
<UnstructuredGrid>
<Piece  NumberOfPoints="1089" NumberOfCells="2048">
<Points>
<DataArray  type="Float64"  NumberOfComponents="3"  format="ascii">0 0 0  0.03125 0 0  0.0625 0 0  0.09375 0 0  0.125 0 0  0.15625 0 0  0.1875 0 0  0.21875 0 0  0.25 0 0  0.28125 0 0  0.3125 0 0  0.34375 0 0  0.375 0 0  0.40625 0 0  0.4375 0 0  0.46875 0 0  0.5 0 0  0.53125 0 0  0.5625 0 0  0.59375 0 0  0.625 0 0  0.65625 0 0  0.6875 0 0  0.71875 0 0  0.75 0 0  0.78125 0 0  0.8125 0 0  0.84375 0 0  0.875 0 0  0.90625 0 0  0.9375 0 0  0.96875 0 0  1 0 0  0 0.03125 0  0.03125 0.03125 0  0.0625 0.03125 0  0.09375 0.03125 0  0.125 0.03125 0  0.15625 0.03125 0  0.1875 0.03125 0  0.21875 0.03125 0  0.25 0.03125 0  0.28125 0.03125 0  0.3125 0.03125 0  0.34375 0.03125 0  0.375 0.03125 0  0.40625 0.03125 0  0.4375 0.03125 0  0.46875 0.03125 0  0.5 0.03125 0  0.53125 0.03125 0  0.5625 0.03125 0  0.59375 0.03125 0  0.625 0.03125 0  0.65625 0.03125 0  0.6875 0.03125 0  0.71875 0.03125 0  0.75 0.03125 0  0.78125 0.03125 0  0.8125 0.03125 0  0.84375 0.03125 0  0.875 0.03125 0  0.90625 0.03125 0  0.9375 0.03125 0  0.96875 0.03125 0  1 0.03125 0  0 0.0625 0  0.03125 0.0625 0  0.0625 0.0625 0  0.09375 0.0625 0  0.125 0.0625 0  0.15625 0.0625 0  0.1875 0.0625 0  0.21875 0.0625 0  0.25 0.0625 0  0.28125 0.0625 0  0.3125 0.0625 0  0.34375 0.0625 0  0.375 0.0625 0  0.40625 0.0625 0  0.4375 0.0625 0  0.46875 0.0625 0  0.5 0.0625 0  0.53125 0.0625 0  0.5625 0.0625 0  0.59375 0.0625 0  0.625 0.0625 0  0.65625 0.0625 0  0.6875 0.0625 0  0.71875 0.0625 0  0.75 0.0625 0  0.78125 0.0625 0  0.8125 0.0625 0  0.84375 0.0625 0  0.875 0.0625 0  0.90625 0.0625 0  0.9375 0.0625 0  0.96875 0.0625 0  1 0.0625 0  0 0.09375 0  0.03125 0.09375 0  0.0625 0.09375 0  0.09375 0.09375 0  0.125 0.09375 0  0.15625 0.09375 0  0.1875 0.09375 0  0.21875 0.09375 0  0.25 0.09375 0  0.28125 0.09375 0  0.3125 0.09375 0  0.34375 0.09375 0  0.375 0.09375 0  0.40625 0.09375 0  0.4375 0.09375 0  0.46875 0.09375 0  0.5 0.09375 0  0.53125 0.09375 0  0.5625 0.09375 0  0.59375 0.09375 0  0.625 0.09375 0  0.65625 0.09375 0  0.6875 0.09375 0  0.71875 0.09375 0  0.75 0.09375 0  0.78125 0.09375 0  0.8125 0.09375 0  0.84375 0.09375 0  0.875 0.09375 0  0.90625 0.09375 0  0.9375 0.09375 0  0.96875 0.09375 0  1 0.09375 0  0 0.125 0  0.03125 0.125 0  0.0625 0.125 0  0.09375 0.125 0  0.125 0.125 0  0.15625 0.125 0  0.1875 0.125 0  0.21875 0.125 0  0.25 0.125 0  0.28125 0.125 0  0.3125 0.125 0  0.34375 0.125 0  0.375 0.125 0  0.40625 0.125 0  0.4375 0.125 0  0.46875 0.125 0  0.5 0.125 0  0.53125 0.125 0  0.5625 0.125 0  0.59375 0.125 0  0.625 0.125 0  0.65625 0.125 0  0.6875 0.125 0  0.71875 0.125 0  0.75 0.125 0  0.78125 0.125 0  0.8125 0.125 0  0.84375 0.125 0  0.875 0.125 0  0.90625 0.125 0  0.9375 0.125 0  0.96875 0.125 0  1 0.125 0  0 0.15625 0  0.03125 0.15625 0  0.0625 0.15625 0  0.09375 0.15625 0  0.125 0.15625 0  0.15625 0.15625 0  0.1875 0.15625 0  0.21875 0.15625 0  0.25 0.15625 0  0.28125 0.15625 0  0.3125 0.15625 0  0.34375 0.15625 0  0.375 0.15625 0  0.40625 0.15625 0  0.4375 0.15625 0  0.46875 0.15625 0  0.5 0.15625 0  0.53125 0.15625 0  0.5625 0.15625 0  0.59375 0.15625 0  0.625 0.15625 0  0.65625 0.15625 0  0.6875 0.15625 0  0.71875 0.15625 0  0.75 0.15625 0  0.78125 0.15625 0  0.8125 0.15625 0  0.84375 0.15625 0  0.875 0.15625 0  0.90625 0.15625 0  0.9375 0.15625 0  0.96875 0.15625 0  1 0.15625 0  0 0.1875 0  0.03125 0.1875 0  0.0625 0.1875 0  0.09375 0.1875 0  0.125 0.1875 0  0.15625 0.1875 0  0.1875 0.1875 0  0.21875 0.1875 0  0.25 0.1875 0  0.28125 0.1875 0  0.3125 0.1875 0  0.34375 0.1875 0  0.375 0.1875 0  0.40625 0.1875 0  0.4375 0.1875 0  0.46875 0.1875 0  0.5 0.1875 0  0.53125 0.1875 0  0.5625 0.1875 0  0.59375 0.1875 0  0.625 0.1875 0  0.65625 0.1875 0  0.6875 0.1875 0  0.71875 0.1875 0  0.75 0.1875 0  0.78125 0.1875 0  0.8125 0.1875 0  0.84375 0.1875 0  0.875 0.1875 0  0.90625 0.1875 0  0.9375 0.1875 0  0.96875 0.1875 0  1 0.1875 0  0 0.21875 0  0.03125 0.21875 0  0.0625 0.21875 0  0.09375 0.21875 0  0.125 0.21875 0  0.15625 0.21875 0  0.1875 0.21875 0  0.21875 0.21875 0  0.25 0.21875 0  0.28125 0.21875 0  0.3125 0.21875 0  0.34375 0.21875 0  0.375 0.21875 0  0.40625 0.21875 0  0.4375 0.21875 0  0.46875 0.21875 0  0.5 0.21875 0  0.53125 0.21875 0  0.5625 0.21875 0  0.59375 0.21875 0  0.625 0.21875 0  0.65625 0.21875 0  0.6875 0.21875 0  0.71875 0.21875 0  0.75 0.21875 0  0.78125 0.21875 0  0.8125 0.21875 0  0.84375 0.21875 0  0.875 0.21875 0  0.90625 0.21875 0  0.9375 0.21875 0  0.96875 0.21875 0  1 0.21875 0  0 0.25 0  0.03125 0.25 0  0.0625 0.25 0  0.09375 0.25 0  0.125 0.25 0  0.15625 0.25 0  0.1875 0.25 0  0.21875 0.25 0  0.25 0.25 0  0.28125 0.25 0  0.3125 0.25 0  0.34375 0.25 0  0.375 0.25 0  0.40625 0.25 0  0.4375 0.25 0  0.46875 0.25 0  0.5 0.25 0  0.53125 0.25 0  0.5625 0.25 0  0.59375 0.25 0  0.625 0.25 0  0.65625 0.25 0  0.6875 0.25 0  0.71875 0.25 0  0.75 0.25 0  0.78125 0.25 0  0.8125 0.25 0  0.84375 0.25 0  0.875 0.25 0  0.90625 0.25 0  0.9375 0.25 0  0.96875 0.25 0  1 0.25 0  0 0.28125 0  0.03125 0.28125 0  0.0625 0.28125 0  0.09375 0.28125 0  0.125 0.28125 0  0.15625 0.28125 0  0.1875 0.28125 0  0.21875 0.28125 0  0.25 0.28125 0  0.28125 0.28125 0  0.3125 0.28125 0  0.34375 0.28125 0  0.375 0.28125 0  0.40625 0.28125 0  0.4375 0.28125 0  0.46875 0.28125 0  0.5 0.28125 0  0.53125 0.28125 0  0.5625 0.28125 0  0.59375 0.28125 0  0.625 0.28125 0  0.65625 0.28125 0  0.6875 0.28125 0  0.71875 0.28125 0  0.75 0.28125 0  0.78125 0.28125 0  0.8125 0.28125 0  0.84375 0.28125 0  0.875 0.28125 0  0.90625 0.28125 0  0.9375 0.28125 0  0.96875 0.28125 0  1 0.28125 0  0 0.3125 0  0.03125 0.3125 0  0.0625 0.3125 0  0.09375 0.3125 0  0.125 0.3125 0  0.15625 0.3125 0  0.1875 0.3125 0  0.21875 0.3125 0  0.25 0.3125 0  0.28125 0.3125 0  0.3125 0.3125 0  0.34375 0.3125 0  0.375 0.3125 0  0.40625 0.3125 0  0.4375 0.3125 0  0.46875 0.3125 0  0.5 0.3125 0  0.53125 0.3125 0  0.5625 0.3125 0  0.59375 0.3125 0  0.625 0.3125 0  0.65625 0.3125 0  0.6875 0.3125 0  0.71875 0.3125 0  0.75 0.3125 0  0.78125 0.3125 0  0.8125 0.3125 0  0.84375 0.3125 0  0.875 0.3125 0  0.90625 0.3125 0  0.9375 0.3125 0  0.96875 0.3125 0  1 0.3125 0  0 0.34375 0  0.03125 0.34375 0  0.0625 0.34375 0  0.09375 0.34375 0  0.125 0.34375 0  0.15625 0.34375 0  0.1875 0.34375 0  0.21875 0.34375 0  0.25 0.34375 0  0.28125 0.34375 0  0.3125 0.34375 0  0.34375 0.34375 0  0.375 0.34375 0  0.40625 0.34375 0  0.4375 0.34375 0  0.46875 0.34375 0  0.5 0.34375 0  0.53125 0.34375 0  0.5625 0.34375 0  0.59375 0.34375 0  0.625 0.34375 0  0.65625 0.34375 0  0.6875 0.34375 0  0.71875 0.34375 0  0.75 0.34375 0  0.78125 0.34375 0  0.8125 0.34375 0  0.84375 0.34375 0  0.875 0.34375 0  0.90625 0.34375 0  0.9375 0.34375 0  0.96875 0.34375 0  1 0.34375 0  0 0.375 0  0.03125 0.375 0  0.0625 0.375 0  0.09375 0.375 0  0.125 0.375 0  0.15625 0.375 0  0.1875 0.375 0  0.21875 0.375 0  0.25 0.375 0  0.28125 0.375 0  0.3125 0.375 0  0.34375 0.375 0  0.375 0.375 0  0.40625 0.375 0  0.4375 0.375 0  0.46875 0.375 0  0.5 0.375 0  0.53125 0.375 0  0.5625 0.375 0  0.59375 0.375 0  0.625 0.375 0  0.65625 0.375 0  0.6875 0.375 0  0.71875 0.375 0  0.75 0.375 0  0.78125 0.375 0  0.8125 0.375 0  0.84375 0.375 0  0.875 0.375 0  0.90625 0.375 0  0.9375 0.375 0  0.96875 0.375 0  1 0.375 0  0 0.40625 0  0.03125 0.40625 0  0.0625 0.40625 0  0.09375 0.40625 0  0.125 0.40625 0  0.15625 0.40625 0  0.1875 0.40625 0  0.21875 0.40625 0  0.25 0.40625 0  0.28125 0.40625 0  0.3125 0.40625 0  0.34375 0.40625 0  0.375 0.40625 0  0.40625 0.40625 0  0.4375 0.40625 0  0.46875 0.40625 0  0.5 0.40625 0  0.53125 0.40625 0  0.5625 0.40625 0  0.59375 0.40625 0  0.625 0.40625 0  0.65625 0.40625 0  0.6875 0.40625 0  0.71875 0.40625 0  0.75 0.40625 0  0.78125 0.40625 0  0.8125 0.40625 0  0.84375 0.40625 0  0.875 0.40625 0  0.90625 0.40625 0  0.9375 0.40625 0  0.96875 0.40625 0  1 0.40625 0  0 0.4375 0  0.03125 0.4375 0  0.0625 0.4375 0  0.09375 0.4375 0  0.125 0.4375 0  0.15625 0.4375 0  0.1875 0.4375 0  0.21875 0.4375 0  0.25 0.4375 0  0.28125 0.4375 0  0.3125 0.4375 0  0.34375 0.4375 0  0.375 0.4375 0  0.40625 0.4375 0  0.4375 0.4375 0  0.46875 0.4375 0  0.5 0.4375 0  0.53125 0.4375 0  0.5625 0.4375 0  0.59375 0.4375 0  0.625 0.4375 0  0.65625 0.4375 0  0.6875 0.4375 0  0.71875 0.4375 0  0.75 0.4375 0  0.78125 0.4375 0  0.8125 0.4375 0  0.84375 0.4375 0  0.875 0.4375 0  0.90625 0.4375 0  0.9375 0.4375 0  0.96875 0.4375 0  1 0.4375 0  0 0.46875 0  0.03125 0.46875 0  0.0625 0.46875 0  0.09375 0.46875 0  0.125 0.46875 0  0.15625 0.46875 0  0.1875 0.46875 0  0.21875 0.46875 0  0.25 0.46875 0  0.28125 0.46875 0  0.3125 0.46875 0  0.34375 0.46875 0  0.375 0.46875 0  0.40625 0.46875 0  0.4375 0.46875 0  0.46875 0.46875 0  0.5 0.46875 0  0.53125 0.46875 0  0.5625 0.46875 0  0.59375 0.46875 0  0.625 0.46875 0  0.65625 0.46875 0  0.6875 0.46875 0  0.71875 0.46875 0  0.75 0.46875 0  0.78125 0.46875 0  0.8125 0.46875 0  0.84375 0.46875 0  0.875 0.46875 0  0.90625 0.46875 0  0.9375 0.46875 0  0.96875 0.46875 0  1 0.46875 0  0 0.5 0  0.03125 0.5 0  0.0625 0.5 0  0.09375 0.5 0  0.125 0.5 0  0.15625 0.5 0  0.1875 0.5 0  0.21875 0.5 0  0.25 0.5 0  0.28125 0.5 0  0.3125 0.5 0  0.34375 0.5 0  0.375 0.5 0  0.40625 0.5 0  0.4375 0.5 0  0.46875 0.5 0  0.5 0.5 0  0.53125 0.5 0  0.5625 0.5 0  0.59375 0.5 0  0.625 0.5 0  0.65625 0.5 0  0.6875 0.5 0  0.71875 0.5 0  0.75 0.5 0  0.78125 0.5 0  0.8125 0.5 0  0.84375 0.5 0  0.875 0.5 0  0.90625 0.5 0  0.9375 0.5 0  0.96875 0.5 0  1 0.5 0  0 0.53125 0  0.03125 0.53125 0  0.0625 0.53125 0  0.09375 0.53125 0  0.125 0.53125 0  0.15625 0.53125 0  0.1875 0.53125 0  0.21875 0.53125 0  0.25 0.53125 0  0.28125 0.53125 0  0.3125 0.53125 0  0.34375 0.53125 0  0.375 0.53125 0  0.40625 0.53125 0  0.4375 0.53125 0  0.46875 0.53125 0  0.5 0.53125 0  0.53125 0.53125 0  0.5625 0.53125 0  0.59375 0.53125 0  0.625 0.53125 0  0.65625 0.53125 0  0.6875 0.53125 0  0.71875 0.53125 0  0.75 0.53125 0  0.78125 0.531
[...]
<PointData  Scalars="phi"> 
<DataArray  type="Float64"  Name="phi"  format="ascii">0.0000000000000000e+00  0.0000000000000000e+00  0.0000000000000000e+00  0.0000000000000000e+00  0.0000000000000000e+00  0.0000000000000000e+00  0.0000000000000000e+00  0.0000000000000000e+00  0.0000000000000000e+00  0.0000000000000000e+00  0.0000000000000000e+00  0.0000000000000000e+00  0.0000000000000000e+00  0.0000000000000000e+00  0.0000000000000000e+00  0.0000000000000000e+00  0.0000000000000000e+00  0.0000000000000000e+00  0.0000000000000000e+00  0.0000000000000000e+00  0.0000000000000000e+00  0.0000000000000000e+00  0.0000000000000000e+00  0.0000000000000000e+00  0.0000000000000000e+00  0.0000000000000000e+00  0.0000000000000000e+00  0.0000000000000000e+00  0.0000000000000000e+00  0.0000000000000000e+00  0.0000000000000000e+00  0.0000000000000000e+00  0.0000000000000000e+00  0.0000000000000000e+00  -3.3611281722753546e-21  1.0264092796319763e-13  4.0443022913231979e-13  9.9181605082166909e-13  1.9370876398579652e-12  3.2947808912536462e-12  5.0987715139635048e-12  7.3601901895152378e-12  1.0066254238198367e-11  1.3180071363956560e-11  1.6641431672930724e-11  2.0368564848679658e-11  2.4260801232814571e-11  2.8202039900816196e-11  3.2064894935268883e-11  3.5715364175687300e-11  3.9017843788622668e-11  4.1840297858834848e-11  4.4059385404788440e-11  4.5565348049003395e-11  4.6266470024575287e-11  4.6092937999955903e-11  4.4999950838164308e-11  4.2969958175251082e-11  4.0013940848377690e-11  3.6171685177770833e-11  3.1511047228247604e-11  2.6126255456259838e-11  2.0135371903502052e-11  1.3677161825183641e-11  6.9079435459754785e-12  0.0000000000000000e+00  0.0000000000000000e+00  -1.0264094133225036e-13  -1.3297304868711833e-20  5.0070495873208600e-13  1.5724160996968060e-12  3.3599630768545292e-12  5.9728594824050470e-12  9.4794882884890558e-12  1.3902930798447686e-11  1.9218622968046523e-11  2.5353948311691787e-11  3.2189799253533528e-11  3.9564060929321160e-11  4.7276895695098359e-11  5.5097635671914657e-11  6.2773027183709992e-11  7.0036517325226192e-11  7.6618231174981938e-11  8.2255259952452559e-11  8.6701866810878356e-11  8.9739218512619341e-11  9.1184267943919478e-11  9.0897443729505945e-11  8.8788848036854197e-11  8.4822720529717447e-11  7.9019993594547495e-11  7.1458839692958008e-11  6.2273194788449978e-11  5.1649332532042246e-11  3.9820665542614462e-11  2.7061069612802722e-11  1.3677161825183680e-11  0.0000000000000000e+00  0.0000000000000000e+00  -4.0443024901297538e-13  -5.0070499828561914e-13  -2.9416337963879523e-20  1.3571849528775910e-12  3.7885960000642175e-12  7.4594326001202786e-12  1.2473644063478953e-11  1.8867681744613525e-11  2.6606975870613072e-11  3.5585297578047140e-11  4.5627052954031008e-11  5.6492440614880821e-11  6.7885291895680008e-11  7.9463307278387304e-11  9.0850308245928149e-11  1.0165004391674845e-10  1.1146102965163225e-10  1.1989185273263363e-10  1.2657635983570987e-10  1.3118814317686112e-10  1.3345376688103695e-10  1.3316422143965178e-10  1.3018416043161429e-10  1.2445855762849296e-10  1.1601652126066508e-10  1.0497211225448215e-10  9.1522131060953731e-11  7.5940959312550520e-11  5.8572662443875983e-11  3.9820665542614650e-11  2.0135371903502207e-11  0.0000000000000000e+00  0.0000000000000000e+00  -9.9181607701804954e-13  -1.5724161518204956e-12  -1.3571850304126314e-12  -5.1094026426348927e-20  2.7902625262041735e-12  7.2354088624322499e-12  1.3476379567257358e-11  2.1564949591605279e-11  3.1459026804325748e-11  4.3021759441039259e-11  5.6024513658200763e-11  7.0153631029305181e-11  8.5020727825360525e-11  1.0017615900559468e-10  1.1512514533524484e-10  1.2934595672955489e-10  1.4230946285467724e-10  1.5349930637200495e-10  1.6243192716211130e-10  1.6867566848910053e-10  1.7186822831834246e-10  1.7173177970836489e-10  1.6808517111193529e-10  1.6085272730055000e-10  1.5006930034477290e-10  1.3588136272438538e-10  1.1854408549256389e-10  9.8414496637852409e-11  7.5940959312551050e-11  5.1649332532042854e-11  2.6126255456260216e-11  0.0000000000000000e+00  0.0000000000000000e+00  -1.9370876721144907e-12  -3.3599631410402902e-12  -3.7885960955466668e-12  -2.7902626520513718e-12  -7.7494658111300749e-20  4.8616477999258877e-12  1.1974309654416400e-11  2.1407475310437003e-11  3.3114624511435546e-11  4.6932054083421814e-11  6.2582478944649062e-11  7.9683296309767668e-11  9.7759220324035361e-11  1.1625882329542774e-10  1.3457436627590028e-10  1.5206417189863852e-10  1.6807669112194088e-10  1.8197534678377505e-10  1.9316320331109762e-10  2.0110651488465786e-10  2.0535624376401163e-10  2.0556671486039279e-10  2.0151067918850608e-10  1.9309019345480722e-10  1.8034288052953678e-10  1.6344330965193456e-10  1.4269941870546310e-10  1.1854408549256497e-10  9.1522131060955191e-11  6.2273194788451271e-11  3.1511047228248347e-11  0.0000000000000000e+00  0.0000000000000000e+00  -3.2947809292570797e-12  -5.9728595580298261e-12  -7.4594327126237889e-12  -7.2354090107184004e-12  -4.8616479825555174e-12  -1.0760228710976963e-19  7.5696961291290022e-12  1.7937349841862984e-11  3.1055593520834857e-11  4.6738303758672171e-11  6.4664756521797013e-11  8.4389287416861651e-11  1.0535611284883499e-10  1.2691876633370152e-10  1.4836342331867946e-10  1.6893523467102072e-10  1.8786666944741530e-10  2.0440678628069812e-10  2.1785031287975916e-10  2.2756541630121869e-10  2.3301909273210650e-10  2.3379919277977578e-10  2.2963222335725994e-10  2.2039622534703812e-10  2.0612821115034703e-10  1.8702585064369186e-10  1.6344330965193645e-10  1.3588136272438819e-10  1.0497211225448504e-10  7.1458839692960322e-11  3.6171685177772106e-11  0.0000000000000000e+00  0.0000000000000000e+00  -5.0987715573457497e-12  -9.4794883748205102e-12  -1.2473644191914373e-11  -1.3476379736547407e-11  -1.1974309862919610e-11  -7.5696963748274871e-12  -1.4025939804808044e-19  1.0847976803389421e-11  2.4929940065174707e-11  4.2042291981128885e-11  6.1826764615040542e-11  8.3781350112164086e-11  1.0727713680672308e-10  1.3158042914084154e-10  1.5587932271101141e-10  1.7931373061266018e-10  2.0100772047761746e-10  2.2010292848951836e-10  2.3579177083481331e-10  2.4734917629915273e-10  2.5416161595672572e-10  2.5575230513763045e-10  2.5180159528475721e-10  2.4216175342377212e-10  2.2686553776283415e-10  2.0612821115034997e-10  1.8034288052954146e-10  1.5006930034477815e-10  1.1601652126066992e-10  7.9019993594551166e-11  4.0013940848379654e-11  0.0000000000000000e+00  0.0000000000000000e+00  -7.3601902378567617e-12  -1.3902930894651035e-11  -1.8867681887739165e-11  -2.1564949780262927e-11  -2.1407475542798975e-11  -1.7937350115681768e-11  -1.0847977116019269e-11  -1.7421117584449681e-19  1.4569454917524018e-11  3.2644614732726750e-11  5.3836086926368241e-11  7.7592921635893803e-11  1.0322127081074358e-10  1.2990895378722709e-10  1.5675500675695402e-10  1.8280309827872427e-10  2.0707754021204933e-10  2.2862051931637583e-10  2.4652912330313224e-10  2.5999073836014989e-10  2.6831545299550447e-10  2.7096421326960994e-10  2.6757163287245195e-10  2.5796256195765913e-10  2.4216175342377635e-10  2.2039622534704512e-10  1.9309019345481557e-10  1.6085272730055840e-10  1.2445855762850030e-10  8.4822720529722836e-11  4.2969958175253932e-11  0.0000000000000000e+00  0.0000000000000000e+00  -1.0066254291032165e-11  -1.9218623073192455e-11  -2.6606976027046526e-11  -3.1459027010529060e-11  -3.3114624765412661e-11  -3.1055593820130510e-11  -2.4929940406898072e-11  -1.4569455298376542e-11  -2.0815356390092471e-19  1.8555952941356567e-11  4.0684660867490530e-11  6.5794151664409096e-11  9.3134498265822236e-11  1.2182456834897856e-10  1.5088424393633754e-10  1.7927088989870713e-10  2.0591868318307298e-10  2.2977930034978319e-10  2.4986240433318646e-10  2.6527437444889743e-10  2.7525378647080061e-10  2.7920226970415581e-10  2.7670954079119437e-10  2.6757163287245763e-10  2.5180159528476698e-10  2.2963222335727209e-10  2.0151067918851901e-10  1.6808517111194757e-10  1.3018416043162466e-10  8.8788848036861668e-11  4.4999950838168217e-11  0.0000000000000000e+00  0.0000000000000000e+00  -1.3180071420772606e-11  -2.5353948424765338e-11  -3.5585297746278467e-11  -4.3021759662798103e-11  -4.6932054356563140e-11  -4.6738304080556808e-11  -4.2042292348648973e-11  -3.2644615142335674e-11  -1.8555953389103145e-11  -2.4078324864935409e-19  2.2592100711785644e-11  4.8595621617470951e-11  7.7213914457512209e-11  1.0750706388733500e-10  1.3842644776674370e-10  1.6885389369368181e-10  1.9764393940062237e-10  2.2366758155215584e-10  2.4585583606927629e-10  2.6324143599264118e-10  2.7499706000449543e-10  2.8046861350894651e-10  2.7920226970416310e-10  2.7096421326962271e-10  2.5575230513764689e-10  2.3379919277979403e-10  2.0556671486041112e-10  1.7173177970838167e-10  1.3316422143966566e-10  9.0897443729515819e-11  4.6092937999961028e-11  0.0000000000000000e+00  0.0000000000000000e+00  -1.6641431733180847e-11  -3.2189799373443775e-11  -4.5627053132437225e-11  -5.6024513893375914e-11  -6.2582479234319919e-11  -6.4664756863166076e-11  -6.1826765004812997e-11  -5.3836087360783750e-11  -4.0684661342359442e-11  -2.2592101222529406e-11  -2.7084762081942277e-19  2.6442595328771371e-11  5.5902006336997837e-11  8.7390178257062616e-11  1.1980123245254253e-10  1.5195292092165209e-10  1.8263140320017601e-10  2.1063763257987283e-10  2.3483357319628993e-10  2.5418647211128000e-10  2.6780948122379447e-10  2.7499706000450427e-10  2.7525378647081653e-10  2.6831545299552556e-10  2.5416161595674996e-10  2.3301909273213183e-10  2.0535624376403611e-10  1.7186822831836433e-10  1.3345376688105476e-10  9.1184267943932041e-11  4.6266470024581769e-11  0.0000000000000000e+00  0.0000000000000000e+00  -2.0368564911782808e-11  -3.9564061054911715e-11  -5.6492440801741477e-11  -7.0153631275628853e-11  -7.9683296613174945e-11  -8.4389287774423732e-11  -8.3781350520431098e-11  -7.7592922090928004e-11  -6.5794152161822887e-11  -4.8595622152469108e-11  -2.6442595896197358e-11  -2.9719278947997831e-19  2.9871307179435134e-11  6.2146090273005899e-11  9.5672908095247575e-11  1.2921745768512565e-10  1.6150942944878740e-10  1.9129108193560234e-10  2.1736567311940745e-10  2.3864388752519071e-10  2.5418647211129039e-10  2.6324143599266021e-10  2.6527437444892318e-10  2.5999073836018029e-10  2.4734917629918556e-10  2.2756541630125172e-10  2.0110651488468906e-10  1.6867566848912799e-10  1.3118814317688320e-10  8.9739218512634773e-11  4.5565348049011331e-11  0.0000000000000000e+00  0.0000000000000000e+00  -2.4260801298162395e-11  -4.7276895825158474e-11  -6.7885292089193729e-11  -8.5020728080458179e-11  -9.7759220638254340e-11  -1.0535611321914354e-10  -1.0727713722954956e-10  -1.0322127128201088e-10  -9.3134498780987116e-11  -7.7213915011609120e-11  -5.5902006924686786e-11  -2.9871307795053138e-11  -3.1880783917109599e-19  3.2660608761476644e-11  6.6925505187880678e-11  1.0152077070726028e-10  1.3513206019718815e-10  1.6645489548409933e-10  1.9424484662470759e-10  2.1736567311941916e-10  2.3483357319631185e-10  2.4585583606930659e-10  2.4986240433322296e-10  2.4652912330317272e-10  2.3579177083485534e-10  2.1785031287980042e-10  1.9316320331113590e-10  1.6243192716214457e-10  1.2657635983573639e-10  8.6701866810896825e-11  4.4059385404797908e-11  0.0000000000000000e+00  0.0000000000000000e+00  -2.8202039967778884e-11  -5.5097635805190857e-11  -7.9463307476689096e-11  -1.0017615926700787e-10  -1.1625882361743031e-10  -1.2691876671318800e-10  -1.3158042957415300e-10  -1.2990895427018640e-10  -1.2182456887693069e-10  -1.0750706445519192e-10  -8.7390178859352362e-11  -6.2146090903925336e-11  -3.2660609414947402e-11  -3.3486352432404179e-19  3.4629282435294369e-11  6.9926422769536865e-11  1.0454586997300660e-10  1.3714886603788908e-10  1.6645489548411218e-10  1.9129108193562675e-10  2.1063763257990713e-10  2.2366758155219802e-10  2.2977930034983096e-10  2.2862051931642675e-10  2.2010292848956993e-10  2.0440678628074785e-10  1.8197534678382060e-10  1.5349930637204416e-10  1.1989185273266473e-10  8.2255259952474118e-11  4.1840297858845866e-11  0.0000000000000000e+00  0.0000000000000000e+00  -3.2064895003201246e-11  -6.2773027318918144e-11  -9.0850308447107379e-11  -1.1512514560045488e-10  -1.3457436660258402e-10  -1.4836342370368768e-10  -1.5587932315063322e-10  -1.5675500724695247e-10  -1.5088424447199073e-10  -1.3842644834289017e-10  -1.1980123306363110e-10  -9.5672908735390864e-11  -6.6925505850911873e-11  -3.4629283114826654e-11  -3.4474405592905723e-19  3.5647483258302852e-11  7.0949506513677788e-11  1.0454586997302020e-10  1.3513206019721444e-10  1.6150942944882496e-10  1.8263140320022303e-10  1.9764393940067671e-10  2.0591868318313220e-10  2.0707754021211085e-10  2.0100772047767862e-10  1.8786666944747349e-10  1.6807669112199364e-10  1.4230946285472235e-10  1.1146102965166783e-10  7.6618231175006508e-11  3.9017843788635211e-11  0.0000000000000000e+00  0.0000000000000000e+00  -3.5715364243934955e-11  -7.0036517461063866e-11  -1.0165004411886722e-10  -1.2934595699600711e-10  -1.5206417222685666e-10  -1.6893523505784216e-10  -1.7931373105435772e-10  -1.8280309877104211e-10  -1.7927089043690194e-10  -1.6885389427256840e-10  -1.5195292153565353e-10  -1.2921745832832710e-10  -1.0152077137346587e-10  -6.9926423452329534e-11  -3.5647483951106126e-11  -3.4807069233485425e-19  3.5647483258316849e-11  6.9926422769564330e-11  1.0152077070730015e-10  1.2921745768517639e-10  1.5195292092171175e-10  1.6885389369374812e-10  1.7927088989877752e-10  1.8280309827879603e-10  1.7931373061273057e-10  1.6893523467108702e-10  1.5206417189869818e-10  1.2934595672960560e-10  1.0165004391678830e-10  7.0036517325253631e-11  3.5715364175701285e-11  0.0000000000000000e+00  0.0000000000000000e+00  -3.9017843856528354e-11  -7.6618231310140962e-11  -1.1146102985274404e-10  -1.4230946311980556e-10  -1.6807669144853250e-10  -1.8786666983232464e-10  -2.0100772091713696e-10  -2.0707754070194523e-10  -2.0591868371862621e-10  -1.9764393997667405e-10  -1.8263140381117718e-10  -1.6150943008885263e-10  -1.3513206086015222e-10  -1.0454587065248397e-10  -7.0949507203124143e-11  -3.5647483951092128e-11  -3.4471618823036741e-19  3.4629282435335431e-11  6.6925505187933760e-11  9.5672908095311023e-11  1.1980123245261429e-10  1.3842644776682133e-10  1.5088424393641839e-10  1.5675500675703534e-10  1.5587932271109033e-10  1.4836342331875318e-10  1.3457436627596625e-10  1.1512514533530070e-10  9.0850308245971886e-11  6.2773027183740042e-11  3.2064894935284179e-11  0.0000000000000000e+00  0.0000000000000000e+00  -4.1840297925744751e-11  -8.2255260085631585e-11  -1.1989185293080209e-10  -1.5349930663325661e-10  -1.8197534710559556e-10  -2.0440678665998920e-10  -2.2010292892262780e-10  -2.2862051979913268e-10  -2.2977930087753804e-10  -2.2366758211982575e-10  -2.1063763318199024e-10  -1.9129108256636791e-10  -1.6645489613743783e-10  -1.3714886670750799e-10  -1.0454587065247037e-10  -6.9926423452302082e-11  -3.4629283114785592e-11  -3.3480964318782725e-19  3.2660608761542037e-11  6.2146090273081056e-11  8.7390178257145386e-11  1.0750706388742289e-10  1.2182456834906885e-10  1.2990895378731695e-10  1.3158042914092801e-10  1.2691876633378184e-10  1.1625882329549922e-10  1.0017615900565499e-10  7.9463307278434389e-11  5.5097635671946956e-11  2.8202039900832617e-11  0.0000000000000000e+00  0.0000000000000000e+00  -4.4059385470058496e-11  -8.6701866940795382e-11  -1.2657636002902738e-10  -1.6243192741697144e-10  -1.9316320362504905e-10  -2.1785031324978073e-10  -2.3579177125734327e-10  -2.4652912377410257e-10  -2.4986240484806208e-10  -2.4585583662309915e-10  -2.3483357378372646e-10  -2.1736567373480023e-10  -1.9424484726212987e-10  -1.6645489613742501e-10  -1.3513206086012593e-10  -1.0152077137342601e-10  -6.6925505850858792e-11  -3.2660609414882003e-11  -3.1873151666328808e-19  2.9871307179520560e-11  5.5902006337090139e-11  7.7213914457608847e-11  9.3134498265920451e-11  1.0322127081084050e-10  1.0727713680681578e-10  1.0535611284892064e-10  9.7759220324111306e-11  8.5020727825424386e-11  6.7885291895729768e-11  4.7276895695132435e-11  2.4260801232831883e-11  0.0000000000000000e+00  0.0000000000000000e+00  -4.5565348112005496e-11  -8.9739218638024148e-11  -1.3118814336346733e-10  -1.6867566873511646e-10  -2.0110651518771872e-10  -2.2756541665840949e-10  -2.4734917670703642e-10  -2.5999073881480046e-10  -2.6527437494593791e-10  -2.6324143652728591e-10  -2.5418647267838076e-10  -2.3864388811928641e-10  -2.1736567373478852e-10  -1.9129108256634354e-10  -1.6150943008881507e-10  -1.2921745832827636e-10  -9.5672908735327430e-11  -6.2146090903850179e-11  -2.9871307794967712e-11  -2.9709899006691101e-19  2.6442595328871305e-11  4.8595621617574465e-11  6.5794151664513424e-11  7.7592921635996064e-11  8.3781350112261396e-11  8.4389287416951181e-11  7.9683296309846806e-11  7.0153631029371549e-11  5.6492440614932442e-11  3.9564060929356471e-11  2.0368564848697585e-11  0.0000000000000000e+00  0.0000000000000000e+00  -4.6266470084703330e-11  -9.1184268063605598e-11  -1.3345376705913654e-10  -1.7186822855314716e-10  -2.0535624405326599e-10  -2.3301909307302966e-10  -2.5416161634603827e-10  -2.6831545342946017e-10  -2.7525378694522250e-10  -2.7499706051481639e-10  -2.6780948176510105e-10  -2.5418647267837036e-10  -2.3483357378370454e-10  -2.1063763318195599e-10  -1.8263140381113016e-10  -1.5195292153559387e-10  -1.1980123306355937e-10  -8.7390178859269605e-11  -5.5902006924594491e-11  -2.6442595896097427e-11  -2.7074230383641131e-19  2.2592100711893814e-11  4.0684660867598826e-11  5.3836086926473830e-11  6.1826764615140579e-11  6.4664756521888752e-11  6.2582478944729919e-11  5.6024513658268449e-11  4.5627052954083566e-11  3.2189799253569445e-11  1.6641431672948948e-11  0.0000000000000000e+00  0.0000000000000000e+00  -4.6092938056631630e-11  -9.0897443842322330e-11  -1.3316422160753186e-10  -1.7173177992970004e-10  -2.0556671513305843e-10  -2.3379919310115178e-10  -2.5575230550462660e-10  -2.7096421367869568e-10  -2.7920227015139443e-10  -2.8046861399003315e-10  -2.7499706051480755e-10  -2.6324143652726683e-10  -2.4585583662306890e-10  -2.2366758211978359e-10  -1.9764393997661972e-10  -1.6885389427250209e-10  -1.3842644834281254e-10  -1.0750706445510403e-10  -7.7213915011512495e-11  -4.8595622152365614e-11  -2.2592101222421239e-11  -2.4067289106959632e-19  1.8555952941466466e-11  3.2644614732833430e-11  4.2042291981229614e-11  4.6738303758764279e-11  4.6932054083502819e-11  4.3021759441106946e-11  3.5585297578099640e-11  2.5353948311727634e-11  1.3180071363974739e-11  0.0000000000000000e+00  0.0000000000000000e+00  -4.4999950890842904e-11  -8.8788848141716323e-11  -1.3018416058766088e-10  -1.6808517131767289e-10  -2.0151067944196125e-10  -2.2963222365599849e-10  -2.5180159562590764e-10  -2.6757163325273314e-10  -2.7670954120694759e-10  -2.7920227015138719e-10  -2.7525378694520658e-10  -2.6527437494591211e-10  -2.4986240484802564e-10  -2.2977930087749030e-10  -2.0591868371856704e-10  -1.7927089043683152e-10  -1.5088424447190984e-10  -1.2182456887684040e-10  -9.3134498780888901e-11  -6.5794152161718572e-11  -4.0684661342251153e-11  -1.8555953388993249e-11  -2.0804460402705951e-19  1.4569454917629426e-11  2.4929940065273939e-11  3.1055593520925388e-11  3.3114624511515020e-11  3.1459026804392059e-11  2.6606975870664451e-11  1.9218622968081578e-11  1.0066254238216140e-11  0.0000000000000000e+00  0.0000000000000000e+00  -4.2969958223426436e-11  -8.4822720625617794e-11  -1.2445855777120666e-10  -1.6085272748871293e-10  -1.9309019368661603e-10  -2.2039622562026766e-10  -2.4216175373579705e-10  -2.5796256230547943e-10  -2.6757163325272745e-10  -2.7096421367868296e-10  -2.6831545342943908e-10  -2.5999073881477011e-10  -2.4652912377406214e-10  -2.2862051979908178e-10  -2.0707754070188376e-10  -1.8280309877097035e-10  -1.5675500724687115e-10  -1.2990895427009659e-10  -1.0322127128191398e-10  -7.7592922090825757e-11  -5.3836087360678162e-11  -3.2644615142228987e-11  -1.4569455298271138e-11  -1.7410950668146058e-19  1.0847976