<?xml version="1.0"?>
<VTKFile type="UnstructuredGrid"  version="0.1"  >
<UnstructuredGrid>
<Piece  NumberOfPoints="1089" NumberOfCells="2048">
<Points>
<DataArray  type="Float64"  NumberOfComponents="3"  format="ascii">0 0 0  0.03125 0 0  0.0625 0 0  0.09375 0 0  0.125 0 0  0.15625 0 0  0.1875 0 0  0.21875 0 0  0.25 0 0  0.28125 0 0  0.3125 0 0  0.34375 0 0  0.375 0 0  0.40625 0 0  0.4375 0 0  0.46875 0 0  0.5 0 0  0.53125 0 0  0.5625 0 0  0.59375 0 0  0.625 0 0  0.65625 0 0  0.6875 0 0  0.71875 0 0  0.75 0 0  0.78125 0 0  0.8125 0 0  0.84375 0 0  0.875 0 0  0.90625 0 0  0.9375 0 0  0.96875 0 0  1 0 0  0 0.03125 0  0.03125 0.03125 0  0.0625 0.03125 0  0.09375 0.03125 0  0.125 0.03125 0  0.15625 0.03125 0  0.1875 0.03125 0  0.21875 0.03125 0  0.25 0.03125 0  0.28125 0.03125 0  0.3125 0.03125 0  0.34375 0.03125 0  0.375 0.03125 0  0.40625 0.03125 0  0.4375 0.03125 0  0.46875 0.03125 0  0.5 0.03125 0  0.53125 0.03125 0  0.5625 0.03125 0  0.59375 0.03125 0  0.625 0.03125 0  0.65625 0.03125 0  0.6875 0.03125 0  0.71875 0.03125 0  0.75 0.03125 0  0.78125 0.03125 0  0.8125 0.03125 0  0.84375 0.03125 0  0.875 0.03125 0  0.90625 0.03125 0  0.9375 0.03125 0  0.96875 0.03125 0  1 0.03125 0  0 0.0625 0  0.03125 0.0625 0  0.0625 0.0625 0  0.09375 0.0625 0  0.125 0.0625 0  0.15625 0.0625 0  0.1875 0.0625 0  0.21875 0.0625 0  0.25 0.0625 0  0.28125 0.0625 0  0.3125 0.0625 0  0.34375 0.0625 0  0.375 0.0625 0  0.40625 0.0625 0  0.4375 0.0625 0  0.46875 0.0625 0  0.5 0.0625 0  0.53125 0.0625 0  0.5625 0.0625 0  0.59375 0.0625 0  0.625 0.0625 0  0.65625 0.0625 0  0.6875 0.0625 0  0.71875 0.0625 0  0.75 0.0625 0  0.78125 0.0625 0  0.8125 0.0625 0  0.84375 0.0625 0  0.875 0.0625 0  0.90625 0.0625 0  0.9375 0.0625 0  0.96875 0.0625 0  1 0.0625 0  0 0.09375 0  0.03125 0.09375 0  0.0625 0.09375 0  0.09375 0.09375 0  0.125 0.09375 0  0.15625 0.09375 0  0.1875 0.09375 0  0.21875 0.09375 0  0.25 0.09375 0  0.28125 0.09375 0  0.3125 0.09375 0  0.34375 0.09375 0  0.375 0.09375 0  0.40625 0.09375 0  0.4375 0.09375 0  0.46875 0.09375 0  0.5 0.09375 0  0.53125 0.09375 0  0.5625 0.09375 0  0.59375 0.09375 0  0.625 0.09375 0  0.65625 0.09375 0  0.6875 0.09375 0  0.71875 0.09375 0  0.75 0.09375 0  0.78125 0.09375 0  0.8125 0.09375 0  0.84375 0.09375 0  0.875 0.09375 0  0.90625 0.09375 0  0.9375 0.09375 0  0.96875 0.09375 0  1 0.09375 0  0 0.125 0  0.03125 0.125 0  0.0625 0.125 0  0.09375 0.125 0  0.125 0.125 0  0.15625 0.125 0  0.1875 0.125 0  0.21875 0.125 0  0.25 0.125 0  0.28125 0.125 0  0.3125 0.125 0  0.34375 0.125 0  0.375 0.125 0  0.40625 0.125 0  0.4375 0.125 0  0.46875 0.125 0  0.5 0.125 0  0.53125 0.125 0  0.5625 0.125 0  0.59375 0.125 0  0.625 0.125 0  0.65625 0.125 0  0.6875 0.125 0  0.71875 0.125 0  0.75 0.125 0  0.78125 0.125 0  0.8125 0.125 0  0.84375 0.125 0  0.875 0.125 0  0.90625 0.125 0  0.9375 0.125 0  0.96875 0.125 0  1 0.125 0  0 0.15625 0  0.03125 0.15625 0  0.0625 0.15625 0  0.09375 0.15625 0  0.125 0.15625 0  0.15625 0.15625 0  0.1875 0.15625 0  0.21875 0.15625 0  0.25 0.15625 0  0.28125 0.15625 0  0.3125 0.15625 0  0.34375 0.15625 0  0.375 0.15625 0  0.40625 0.15625 0  0.4375 0.15625 0  0.46875 0.15625 0  0.5 0.15625 0  0.53125 0.15625 0  0.5625 0.15625 0  0.59375 0.15625 0  0.625 0.15625 0  0.65625 0.15625 0  0.6875 0.15625 0  0.71875 0.15625 0  0.75 0.15625 0  0.78125 0.15625 0  0.8125 0.15625 0  0.84375 0.15625 0  0.875 0.15625 0  0.90625 0.15625 0  0.9375 0.15625 0  0.96875 0.15625 0  1 0.15625 0  0 0.1875 0  0.03125 0.1875 0  0.0625 0.1875 0  0.09375 0.1875 0  0.125 0.1875 0  0.15625 0.1875 0  0.1875 0.1875 0  0.21875 0.1875 0  0.25 0.1875 0  0.28125 0.1875 0  0.3125 0.1875 0  0.34375 0.1875 0  0.375 0.1875 0  0.40625 0.1875 0  0.4375 0.1875 0  0.46875 0.1875 0  0.5 0.1875 0  0.53125 0.1875 0  0.5625 0.1875 0  0.59375 0.1875 0  0.625 0.1875 0  0.65625 0.1875 0  0.6875 0.1875 0  0.71875 0.1875 0  0.75 0.1875 0  0.78125 0.1875 0  0.8125 0.1875 0  0.84375 0.1875 0  0.875 0.1875 0  0.90625 0.1875 0  0.9375 0.1875 0  0.96875 0.1875 0  1 0.1875 0  0 0.21875 0  0.03125 0.21875 0  0.0625 0.21875 0  0.09375 0.21875 0  0.125 0.21875 0  0.15625 0.21875 0  0.1875 0.21875 0  0.21875 0.21875 0  0.25 0.21875 0  0.28125 0.21875 0  0.3125 0.21875 0  0.34375 0.21875 0  0.375 0.21875 0  0.40625 0.21875 0  0.4375 0.21875 0  0.46875 0.21875 0  0.5 0.21875 0  0.53125 0.21875 0  0.5625 0.21875 0  0.59375 0.21875 0  0.625 0.21875 0  0.65625 0.21875 0  0.6875 0.21875 0  0.71875 0.21875 0  0.75 0.21875 0  0.78125 0.21875 0  0.8125 0.21875 0  0.84375 0.21875 0  0.875 0.21875 0  0.90625 0.21875 0  0.9375 0.21875 0  0.96875 0.21875 0  1 0.21875 0  0 0.25 0  0.03125 0.25 0  0.0625 0.25 0  0.09375 0.25 0  0.125 0.25 0  0.15625 0.25 0  0.1875 0.25 0  0.21875 0.25 0  0.25 0.25 0  0.28125 0.25 0  0.3125 0.25 0  0.34375 0.25 0  0.375 0.25 0  0.40625 0.25 0  0.4375 0.25 0  0.46875 0.25 0  0.5 0.25 0  0.53125 0.25 0  0.5625 0.25 0  0.59375 0.25 0  0.625 0.25 0  0.65625 0.25 0  0.6875 0.25 0  0.71875 0.25 0  0.75 0.25 0  0.78125 0.25 0  0.8125 0.25 0  0.84375 0.25 0  0.875 0.25 0  0.90625 0.25 0  0.9375 0.25 0  0.96875 0.25 0  1 0.25 0  0 0.28125 0  0.03125 0.28125 0  0.0625 0.28125 0  0.09375 0.28125 0  0.125 0.28125 0  0.15625 0.28125 0  0.1875 0.28125 0  0.21875 0.28125 0  0.25 0.28125 0  0.28125 0.28125 0  0.3125 0.28125 0  0.34375 0.28125 0  0.375 0.28125 0  0.40625 0.28125 0  0.4375 0.28125 0  0.46875 0.28125 0  0.5 0.28125 0  0.53125 0.28125 0  0.5625 0.28125 0  0.59375 0.28125 0  0.625 0.28125 0  0.65625 0.28125 0  0.6875 0.28125 0  0.71875 0.28125 0  0.75 0.28125 0  0.78125 0.28125 0  0.8125 0.28125 0  0.84375 0.28125 0  0.875 0.28125 0  0.90625 0.28125 0  0.9375 0.28125 0  0.96875 0.28125 0  1 0.28125 0  0 0.3125 0  0.03125 0.3125 0  0.0625 0.3125 0  0.09375 0.3125 0  0.125 0.3125 0  0.15625 0.3125 0  0.1875 0.3125 0  0.21875 0.3125 0  0.25 0.3125 0  0.28125 0.3125 0  0.3125 0.3125 0  0.34375 0.3125 0  0.375 0.3125 0  0.40625 0.3125 0  0.4375 0.3125 0  0.46875 0.3125 0  0.5 0.3125 0  0.53125 0.3125 0  0.5625 0.3125 0  0.59375 0.3125 0  0.625 0.3125 0  0.65625 0.3125 0  0.6875 0.3125 0  0.71875 0.3125 0  0.75 0.3125 0  0.78125 0.3125 0  0.8125 0.3125 0  0.84375 0.3125 0  0.875 0.3125 0  0.90625 0.3125 0  0.9375 0.3125 0  0.96875 0.3125 0  1 0.3125 0  0 0.34375 0  0.03125 0.34375 0  0.0625 0.34375 0  0.09375 0.34375 0  0.125 0.34375 0  0.15625 0.34375 0  0.1875 0.34375 0  0.21875 0.34375 0  0.25 0.34375 0  0.28125 0.34375 0  0.3125 0.34375 0  0.34375 0.34375 0  0.375 0.34375 0  0.40625 0.34375 0  0.4375 0.34375 0  0.46875 0.34375 0  0.5 0.34375 0  0.53125 0.34375 0  0.5625 0.34375 0  0.59375 0.34375 0  0.625 0.34375 0  0.65625 0.34375 0  0.6875 0.34375 0  0.71875 0.34375 0  0.75 0.34375 0  0.78125 0.34375 0  0.8125 0.34375 0  0.84375 0.34375 0  0.875 0.34375 0  0.90625 0.34375 0  0.9375 0.34375 0  0.96875 0.34375 0  1 0.34375 0  0 0.375 0  0.03125 0.375 0  0.0625 0.375 0  0.09375 0.375 0  0.125 0.375 0  0.15625 0.375 0  0.1875 0.375 0  0.21875 0.375 0  0.25 0.375 0  0.28125 0.375 0  0.3125 0.375 0  0.34375 0.375 0  0.375 0.375 0  0.40625 0.375 0  0.4375 0.375 0  0.46875 0.375 0  0.5 0.375 0  0.53125 0.375 0  0.5625 0.375 0  0.59375 0.375 0  0.625 0.375 0  0.65625 0.375 0  0.6875 0.375 0  0.71875 0.375 0  0.75 0.375 0  0.78125 0.375 0  0.8125 0.375 0  0.84375 0.375 0  0.875 0.375 0  0.90625 0.375 0  0.9375 0.375 0  0.96875 0.375 0  1 0.375 0  0 0.40625 0  0.03125 0.40625 0  0.0625 0.40625 0  0.09375 0.40625 0  0.125 0.40625 0  0.15625 0.40625 0  0.1875 0.40625 0  0.21875 0.40625 0  0.25 0.40625 0  0.28125 0.40625 0  0.3125 0.40625 0  0.34375 0.40625 0  0.375 0.40625 0  0.40625 0.40625 0  0.4375 0.40625 0  0.46875 0.40625 0  0.5 0.40625 0  0.53125 0.40625 0  0.5625 0.40625 0  0.59375 0.40625 0  0.625 0.40625 0  0.65625 0.40625 0  0.6875 0.40625 0  0.71875 0.40625 0  0.75 0.40625 0  0.78125 0.40625 0  0.8125 0.40625 0  0.84375 0.40625 0  0.875 0.40625 0  0.90625 0.40625 0  0.9375 0.40625 0  0.96875 0.40625 0  1 0.40625 0  0 0.4375 0  0.03125 0.4375 0  0.0625 0.4375 0  0.09375 0.4375 0  0.125 0.4375 0  0.15625 0.4375 0  0.1875 0.4375 0  0.21875 0.4375 0  0.25 0.4375 0  0.28125 0.4375 0  0.3125 0.4375 0  0.34375 0.4375 0  0.375 0.4375 0  0.40625 0.4375 0  0.4375 0.4375 0  0.46875 0.4375 0  0.5 0.4375 0  0.53125 0.4375 0  0.5625 0.4375 0  0.59375 0.4375 0  0.625 0.4375 0  0.65625 0.4375 0  0.6875 0.4375 0  0.71875 0.4375 0  0.75 0.4375 0  0.78125 0.4375 0  0.8125 0.4375 0  0.84375 0.4375 0  0.875 0.4375 0  0.90625 0.4375 0  0.9375 0.4375 0  0.96875 0.4375 0  1 0.4375 0  0 0.46875 0  0.03125 0.46875 0  0.0625 0.46875 0  0.09375 0.46875 0  0.125 0.46875 0  0.15625 0.46875 0  0.1875 0.46875 0  0.21875 0.46875 0  0.25 0.46875 0  0.28125 0.46875 0  0.3125 0.46875 0  0.34375 0.46875 0  0.375 0.46875 0  0.40625 0.46875 0  0.4375 0.46875 0  0.46875 0.46875 0  0.5 0.46875 0  0.53125 0.46875 0  0.5625 0.46875 0  0.59375 0.46875 0  0.625 0.46875 0  0.65625 0.46875 0  0.6875 0.46875 0  0.71875 0.46875 0  0.75 0.46875 0  0.78125 0.46875 0  0.8125 0.46875 0  0.84375 0.46875 0  0.875 0.46875 0  0.90625 0.46875 0  0.9375 0.46875 0  0.96875 0.46875 0  1 0.46875 0  0 0.5 0  0.03125 0.5 0  0.0625 0.5 0  0.09375 0.5 0  0.125 0.5 0  0.15625 0.5 0  0.1875 0.5 0  0.21875 0.5 0  0.25 0.5 0  0.28125 0.5 0  0.3125 0.5 0  0.34375 0.5 0  0.375 0.5 0  0.40625 0.5 0  0.4375 0.5 0  0.46875 0.5 0  0.5 0.5 0  0.53125 0.5 0  0.5625 0.5 0  0.59375 0.5 0  0.625 0.5 0  0.65625 0.5 0  0.6875 0.5 0  0.71875 0.5 0  0.75 0.5 0  0.78125 0.5 0  0.8125 0.5 0  0.84375 0.5 0  0.875 0.5 0  0.90625 0.5 0  0.9375 0.5 0  0.96875 0.5 0  1 0.5 0  0 0.53125 0  0.03125 0.53125 0  0.0625 0.53125 0  0.09375 0.53125 0  0.125 0.53125 0  0.15625 0.53125 0  0.1875 0.53125 0  0.21875 0.53125 0  0.25 0.53125 0  0.28125 0.53125 0  0.3125 0.53125 0  0.34375 0.53125 0  0.375 0.53125 0  0.40625 0.53125 0  0.4375 0.53125 0  0.46875 0.53125 0  0.5 0.53125 0  0.53125 0.53125 0  0.5625 0.53125 0  0.59375 0.53125 0  0.625 0.53125 0  0.65625 0.53125 0  0.6875 0.53125 0  0.71875 0.53125 0  0.75 0.53125 0  0.78125 0.531
[...]
<PointData  Scalars="phi"> 
<DataArray  type="Float64"  Name="phi"  format="ascii">0.0000000000000000e+00  0.0000000000000000e+00  0.0000000000000000e+00  0.0000000000000000e+00  0.0000000000000000e+00  0.0000000000000000e+00  0.0000000000000000e+00  0.0000000000000000e+00  0.0000000000000000e+00  0.0000000000000000e+00  0.0000000000000000e+00  0.0000000000000000e+00  0.0000000000000000e+00  0.0000000000000000e+00  0.0000000000000000e+00  0.0000000000000000e+00  0.0000000000000000e+00  0.0000000000000000e+00  0.0000000000000000e+00  0.0000000000000000e+00  0.0000000000000000e+00  0.0000000000000000e+00  0.0000000000000000e+00  0.0000000000000000e+00  0.0000000000000000e+00  0.0000000000000000e+00  0.0000000000000000e+00  0.0000000000000000e+00  0.0000000000000000e+00  0.0000000000000000e+00  0.0000000000000000e+00  0.0000000000000000e+00  0.0000000000000000e+00  0.0000000000000000e+00  -5.6504265328190649e-20  8.9764942923554733e-11  3.5369570123079414e-10  8.6739576917187785e-10  1.6940859284276582e-09  2.8814607126017930e-09  4.4591462264511241e-09  6.4368768414956474e-09  8.8034734261141894e-09  1.1526671710040494e-08  1.4553814946600447e-08  1.7813390655670854e-08  2.1217357879879954e-08  2.4664180200910792e-08  2.8042451875427939e-08  3.1234980904504803e-08  3.4123174541233066e-08  3.6591560372478986e-08  3.8532270165952108e-08  3.9849314397245557e-08  4.0462482762166794e-08  4.0310719798293748e-08  3.9354844534395324e-08  3.7579508246067530e-08  3.4994314258022756e-08  3.1634057818210903e-08  2.7558082655487816e-08  2.2848796554401129e-08  1.7609451034302089e-08  1.1961403673185339e-08  6.0413631395811160e-09  0.0000000000000000e+00  0.0000000000000000e+00  -8.9764943148262728e-11  -2.2346362626767983e-19  4.3789306862606562e-10  1.3751613271740019e-09  2.9384660034251809e-09  5.2235825440291525e-09  8.2903154861824439e-09  1.2158850654207612e-08  1.6807705488118591e-08  2.2173373018508516e-08  2.8151687350928386e-08  3.4600870435445614e-08  4.1346153649871269e-08  4.8185805695799383e-08  5.4898342796951584e-08  6.1250650295521151e-08  6.7006708254267722e-08  7.1936588995816381e-08  7.5825382609943980e-08  7.8481707819997691e-08  7.9745480213324147e-08  7.9494637217214193e-08  7.7650558407561334e-08  7.4181969473061180e-08  6.9107176896285426e-08  6.2494546642450825e-08  5.4461212817749611e-08  4.5170081612924028e-08  3.4825284747104117e-08  2.3666341131674158e-08  1.1961403673185374e-08  0.0000000000000000e+00  0.0000000000000000e+00  -3.5369570156485770e-10  -4.3789306929059047e-10  -4.9408174437178904e-19  1.1869302809403560e-09  3.3133282496139921e-09  6.5236696224632161e-09  1.0908863586495305e-08  1.6500788785083798e-08  2.3269212117634294e-08  3.1121230806975606e-08  3.9903278659983839e-08  4.9405636643755743e-08  5.9369289547351628e-08  6.9494878281277085e-08  7.9453414773916808e-08  8.8898356605972731e-08  9.7478584159398758e-08  1.0485178624568039e-07  1.1069774235643418e-07  1.1473099156677954e-07  1.1671239969668137e-07  1.1645917684177144e-07  1.1385295537594891e-07  1.0884561194304453e-07  1.0146260323493613e-07  9.1803681583361226e-08  8.0040959424179282e-08  6.6414398052565848e-08  5.1224900945788246e-08  3.4825284747104289e-08  1.7609451034302224e-08  0.0000000000000000e+00  0.0000000000000000e+00  -8.6739576961190433e-10  -1.3751613280493921e-09  -1.1869302822421735e-09  -8.5756070377313245e-19  2.4402326724670497e-09  6.3277489934664311e-09  1.1785809002904867e-08  1.8859692642236831e-08  2.7512588109464378e-08  3.7624811275799530e-08  4.8996409714669913e-08  6.1353072490674741e-08  7.4355137426794703e-08  8.7609366078606833e-08  1.0068304775442725e-07  1.1311990181436717e-07  1.2445717570809253e-07  1.3424328754729790e-07  1.4205533835194094e-07  1.4751582140465781e-07  1.5030788435401358e-07  1.5018855279943497e-07  1.4699940010180121e-07  1.4067424425884831e-07  1.3124356525545840e-07  1.1883546104648040e-07  1.0367309225628282e-07  8.6068698803309812e-08  6.6414398052566312e-08  4.5170081612924564e-08  2.2848796554401467e-08  0.0000000000000000e+00  0.0000000000000000e+00  -1.6940859289692274e-09  -2.9384660045026506e-09  -3.3133282512164121e-09  -2.4402326745783000e-09  -1.2994810651373685e-18  4.2517690174839402e-09  1.0472169187576399e-08  1.8721973047193058e-08  2.8960496163716211e-08  4.1044571426016253e-08  5.4731698318473118e-08  6.9687270405972562e-08  8.5495624991862968e-08  1.0167450930304322e-07  1.1769242338540206e-07  1.3298818633700028e-07  1.4699198395247419e-07  1.5914709572958748e-07  1.6893146983889987e-07  1.7587831724325208e-07  1.7959493061465997e-07  1.7977899874802158e-07  1.7623178034891133e-07  1.6886761881075465e-07  1.5771941732977435e-07  1.4293984596767752e-07  1.2479821274151904e-07  1.0367309225628378e-07  8.0040959424180579e-08  5.4461212817750762e-08  2.7558082655488477e-08  0.0000000000000000e+00  0.0000000000000000e+00  -2.8814607132394967e-09  -5.2235825452979467e-09  -6.5236696243502525e-09  -6.3277489959527615e-09  -4.2517690205447194e-09  -1.8023749450792114e-18  6.6201009858199735e-09  1.5687164232777147e-08  2.7159764338547784e-08  4.0875126508372420e-08  5.6552760558556587e-08  7.3802909332001820e-08  9.2139510587300008e-08  1.1099719508539633e-07  1.2975168538238519e-07  1.4774282586260790e-07  1.6429936999424221e-07  1.7876457970999173e-07  1.9052165697259011e-07  1.9901803035075226e-07  2.0378755973119938e-07  2.0446979860325537e-07  2.0082556275208230e-07  1.9274819245887587e-07  1.8027005703234211e-07  1.6356402926711485e-07  1.4293984596767919e-07  1.1883546104648289e-07  9.1803681583363780e-08  6.2494546642452877e-08  3.1634057818212035e-08  0.0000000000000000e+00  0.0000000000000000e+00  -4.4591462271786212e-09  -8.2903154876299472e-09  -1.0908863588648202e-08  -1.1785809005741574e-08  -1.0472169191068595e-08  -6.6201009899329057e-09  -2.3464257587077678e-18  9.4871313956423146e-09  2.1802555408950482e-08  3.6768215078302354e-08  5.4070786085219237e-08  7.3271235926257130e-08  9.3819547982270704e-08  1.1507406656110726e-07  1.3632473818570072e-07  1.5681937122546518e-07  1.7579191635122362e-07  1.9249168886448242e-07  2.0621241387339588e-07  2.1631997813189954e-07  2.2227781804322690e-07  2.2366896011748202e-07  2.2021385473238769e-07  2.1178330156391972e-07  1.9840594940324357e-07  1.8027005703234473e-07  1.5771941732977848e-07  1.3124356525546304e-07  1.0146260323494042e-07  6.9107176896288695e-08  3.4994314258024503e-08  0.0000000000000000e+00  0.0000000000000000e+00  -6.4368768423057277e-09  -1.2158850655819481e-08  -1.6500788787481226e-08  -1.8859692645395814e-08  -1.8721973051082087e-08  -1.5687164237357544e-08  -9.4871314008686370e-09  -2.9102665461783393e-18  1.2741761481340204e-08  2.8549447742300424e-08  4.7082514514641432e-08  6.7859126912427192e-08  9.0272478002765274e-08  1.1361227270437916e-07  1.3709057036551933e-07  1.5987100840199487e-07  1.8110029576912348e-07  1.9994077397060097e-07  2.1560279830545923e-07  2.2737569488121225e-07  2.3465609949450381e-07  2.3697258087536847e-07  2.3400558930997587e-07  2.2560194696509611e-07  2.1178330156392348e-07  1.9274819245888207e-07  1.6886761881076206e-07  1.4067424425885577e-07  1.0884561194305104e-07  7.4181969473065971e-08  3.7579508246070058e-08  0.0000000000000000e+00  0.0000000000000000e+00  -8.8034734269988491e-09  -1.6807705489878904e-08  -2.3269212120252572e-08  -2.7512588112914439e-08  -2.8960496167963671e-08  -2.7159764343550420e-08  -2.1802555414658680e-08  -1.2741761487697498e-08  -3.4718291052350809e-18  1.6228165538317676e-08  3.5580894685413514e-08  5.7540476598564604e-08  8.1451060270303128e-08  1.0654204873521911e-07  1.3195627682105690e-07  1.5678190478957145e-07  1.8008681383290491e-07  2.0095418948356056e-07  2.1851792943463405e-07  2.3199651498601424e-07  2.4072404025414296e-07  2.4417719831958856e-07  2.4199717461822461e-07  2.3400558930998092e-07  2.2021385473239632e-07  2.0082556275209307e-07  1.7623178034892282e-07  1.4699940010181209e-07  1.1385295537595810e-07  7.7650558407567978e-08  3.9354844534398798e-08  0.0000000000000000e+00  0.0000000000000000e+00  -1.1526671710991021e-08  -2.2173373020399934e-08  -3.1121230809788940e-08  -3.7624811279506695e-08  -4.1044571430580312e-08  -4.0875126513748042e-08  -3.6768215084436236e-08  -2.8549447749131903e-08  -1.6228165545779354e-08  -4.0092261568085950e-18  1.9757990931226544e-08  4.2499449608619751e-08  6.7527665068947340e-08  9.4020631475435229e-08  1.2106127313104564e-07  1.4767168894472836e-07  1.7285011139021926e-07  1.9560916715065414e-07  2.1501397293328017e-07  2.3021860246318561e-07  2.4049951935396275e-07  2.4528468317815869e-07  2.4417719831959496e-07  2.3697258087537983e-07  2.2366896011749663e-07  2.0446979860327157e-07  1.7977899874803783e-07  1.5018855279944990e-07  1.1645917684178375e-07  7.9494637217222954e-08  4.0310719798298300e-08  0.0000000000000000e+00  0.0000000000000000e+00  -1.4553814947607505e-08  -2.8151687352932330e-08  -3.9903278662964614e-08  -4.8996409718597777e-08  -5.4731698323308982e-08  -5.6552760564252420e-08  -5.4070786091718593e-08  -4.7082514521880043e-08  -3.5580894693319984e-08  -1.9757990939723082e-08  -4.5016149954377720e-18  2.3125452788784882e-08  4.8889270713802144e-08  7.6427347691120587e-08  1.0477253417996455e-07  1.3289089157774296e-07  1.5972085199733407e-07  1.8421378547613273e-07  2.0537441927142430e-07  2.2229955614543143e-07  2.3421360038152586e-07  2.4049951935397064e-07  2.4072404025415715e-07  2.3465609949452255e-07  2.2227781804324837e-07  2.0378755973122182e-07  1.7959493061468170e-07  1.5030788435403301e-07  1.1671239969669717e-07  7.9745480213335291e-08  4.0462482762172551e-08  0.0000000000000000e+00  0.0000000000000000e+00  -1.7813390656724586e-08  -3.4600870437542471e-08  -4.9405636646874769e-08  -6.1353072494784850e-08  -6.9687270411032883e-08  -7.3802909337962113e-08  -7.3271235933058342e-08  -6.7859126920002089e-08  -5.7540476606838488e-08  -4.2499449617511228e-08  -2.3125452798206714e-08  -4.9300005326467910e-18  2.6124043235575414e-08  5.4350053418630960e-08  8.3671034396879232e-08  1.1300752274405187e-07  1.4124856532314946e-07  1.6729420050525759e-07  1.9009781389455123e-07  2.0870674131380263e-07  2.2229955614544064e-07  2.3021860246320253e-07  2.3199651498603716e-07  2.2737569488123922e-07  2.1631997813192866e-07  1.9901803035078159e-07  1.7587831724327977e-07  1.4751582140468216e-07  1.1473099156679913e-07  7.8481707820011402e-08  3.9849314397252612e-08  0.0000000000000000e+00  0.0000000000000000e+00  -2.1217357880970072e-08  -4.1346153652040574e-08  -5.9369289550578473e-08  -7.4355137431046954e-08  -8.5495624997098359e-08  -9.2139510593466593e-08  -9.3819547989307404e-08  -9.0272478010602552e-08  -8.1451060278863706e-08  -6.7527665078147018e-08  -4.8889270723550666e-08  -2.6124043245777406e-08  -5.2779711728858310e-18  2.8563435473663741e-08  5.8529905350672502e-08  8.8785300524711805e-08  1.1818015645270751e-07  1.4557363776188995e-07  1.6987742444279538e-07  1.9009781389456160e-07  2.0537441927144379e-07  2.1501397293330704e-07  2.1851792943466648e-07  2.1560279830549515e-07  2.0621241387343317e-07  1.9052165697262674e-07  1.6893146983893383e-07  1.4205533835197048e-07  1.1069774235645774e-07  7.5825382609960378e-08  3.8532270165960513e-08  0.0000000000000000e+00  0.0000000000000000e+00  -2.4664180202026695e-08  -4.8185805698020039e-08  -6.9494878284580368e-08  -8.7609366082959854e-08  -1.0167450930840276e-07  -1.1099719509170923e-07  -1.1507406656831102e-07  -1.1361227271240260e-07  -1.0654204874398313e-07  -9.4020631484853640e-08  -7.6427347701100991e-08  -5.4350053429075724e-08  -2.8563435484470992e-08  -5.5323241771918142e-18  3.0285145061966389e-08  6.1154367000098865e-08  9.1430910337067005e-08  1.1994396016630964e-07  1.4557363776190133e-07  1.6729420050527924e-07  1.8421378547616317e-07  1.9560916715069157e-07  2.0095418948360296e-07  1.9994077397064618e-07  1.9249168886452818e-07  1.7876457971003586e-07  1.5914709572962790e-07  1.3424328754733271e-07  1.0485178624570800e-07  7.1936588995835492e-08  3.6591560372488767e-08  0.0000000000000000e+00  0.0000000000000000e+00  -2.8042451876558811e-08  -5.4898342799202065e-08  -7.9453414777264494e-08  -1.0068304775883886e-07  -1.1769242339083379e-07  -1.2975168538878320e-07  -1.3632473819300170e-07  -1.3709057037365114e-07  -1.3195627682993939e-07  -1.2106127314059147e-07  -1.0477253419008008e-07  -8.3671034407465516e-08  -5.8529905361626286e-08  -3.0285145073181178e-08  -5.6835380307851410e-18  3.1175615708748824e-08  6.2049108017639418e-08  9.1430910337079075e-08  1.1818015645273084e-07  1.4124856532318281e-07  1.5972085199737581e-07  1.7285011139026749e-07  1.8008681383295746e-07  1.8110029576917806e-07  1.7579191635127788e-07  1.6429936999429383e-07  1.4699198395252099e-07  1.2445717570813258e-07  9.7478584159430337e-08  6.7006708254289520e-08  3.4123174541244190e-08  0.0000000000000000e+00  0.0000000000000000e+00  -3.1234980905639721e-08  -6.1250650297779711e-08  -8.8898356609332474e-08  -1.1311990181879474e-07  -1.3298818634245173e-07  -1.4774282586902920e-07  -1.5681937123279281e-07  -1.5987100841015648e-07  -1.5678190479848661e-07  -1.4767168895430939e-07  -1.3289089158789587e-07  -1.1300752275467739e-07  -8.8785300535706292e-08  -6.1154367011355430e-08  -3.1175615720158351e-08  -5.7261211381794042e-18  3.1175615708761245e-08  6.1154367000123244e-08  8.8785300524747195e-08  1.1300752274409691e-07  1.3289089157779590e-07  1.4767168894478720e-07  1.5678190478963390e-07  1.5987100840205853e-07  1.5681937122552760e-07  1.4774282586266669e-07  1.3298818633705322e-07  1.1311990181441218e-07  8.8898356606008082e-08  6.1250650295545503e-08  3.1234980904517210e-08  0.0000000000000000e+00  0.0000000000000000e+00  -3.4123174542361089e-08  -6.7006708256512611e-08  -9.7478584162738212e-08  -1.2445717571249342e-07  -1.4699198395789285e-07  -1.6429937000062500e-07  -1.7579191635850739e-07  -1.8110029577723631e-07  -1.8008681384176686e-07  -1.7285011139974322e-07  -1.5972085200742660e-07  -1.4124856533371188e-07  -1.1818015646363682e-07  -9.1430910348256945e-08  -6.2049108028981533e-08  -3.1175615720145930e-08  -5.6588082279549728e-18  3.0285145062002831e-08  5.8529905350719605e-08  8.3671034396935534e-08  1.0477253418002821e-07  1.2106127313111452e-07  1.3195627682112866e-07  1.3709057036559146e-07  1.3632473818577076e-07  1.2975168538245060e-07  1.1769242338546060e-07  1.0068304775447680e-07  7.9453414773955613e-08  5.4898342796978246e-08  2.8042451875441508e-08  0.0000000000000000e+00  0.0000000000000000e+00  -3.6591560373589307e-08  -7.1936588998026038e-08  -1.0485178624896753e-07  -1.3424328755162986e-07  -1.5914709573492138e-07  -1.7876457971627471e-07  -1.9249168887165236e-07  -1.9994077397858712e-07  -2.0095418949228423e-07  -1.9560916716002958e-07  -1.8421378548606800e-07  -1.6729420051565555e-07  -1.4557363777264917e-07  -1.1994396017732555e-07  -9.1430910348244875e-08  -6.1154367011331065e-08  -3.0285145073144736e-08  -5.4845151143511675e-18  2.8563435473721776e-08  5.4350053418697651e-08  7.6427347691194027e-08  9.4020631475513209e-08  1.0654204873529922e-07  1.1361227270445886e-07  1.1507406656118399e-07  1.1099719508546757e-07  1.0167450930310663e-07  8.7609366078660328e-08  6.9494878281318868e-08  4.8185805695828037e-08  2.4664180200925360e-08  0.0000000000000000e+00  0.0000000000000000e+00  -3.8532270167034094e-08  -7.5825382612097297e-08  -1.1069774235963753e-07  -1.4205533835616258e-07  -1.6893146984409795e-07  -1.9052165697871321e-07  -2.0621241388038345e-07  -2.1560279831324235e-07  -2.1851792944313601e-07  -2.1501397294241743e-07  -2.0537441928110729e-07  -1.9009781390468523e-07  -1.6987742445328159e-07  -1.4557363777263779e-07  -1.1818015646361350e-07  -8.8785300535670929e-08  -5.8529905361579189e-08  -2.8563435484412960e-08  -5.2102412966895082e-18  2.6124043235651216e-08  4.8889270713884048e-08  6.7527665069033089e-08  8.1451060270390266e-08  9.0272478002851261e-08  9.3819547982352959e-08  9.2139510587376002e-08  8.5495624991930347e-08  7.4355137426851362e-08  5.9369289547395773e-08  4.1346153649901498e-08  2.1217357879895316e-08  0.0000000000000000e+00  0.0000000000000000e+00  -3.9849314398288903e-08  -7.8481707822074139e-08  -1.1473099156986856e-07  -1.4751582140872883e-07  -1.7587831724826479e-07  -1.9901803035665708e-07  -2.1631997813863814e-07  -2.2737569488871810e-07  -2.3199651499421347e-07  -2.3021860247199759e-07  -2.2229955615476981e-07  -2.0870674132357609e-07  -1.9009781390467481e-07  -1.6729420051563390e-07  -1.4124856533367858e-07  -1.1300752275463236e-07  -8.3671034407409215e-08  -5.4350053429009026e-08  -2.6124043245701600e-08  -4.8467578588926150e-18  2.3125452788873560e-08  4.2499449608711595e-08  5.7540476598657169e-08  6.7859126912517931e-08  7.3271235926343461e-08  7.3802909332081255e-08  6.9687270406042774e-08  6.1353072490733637e-08  4.9405636643801542e-08  3.4600870435476941e-08  1.7813390655686763e-08  0.0000000000000000e+00  0.0000000000000000e+00  -4.0462482763161581e-08  -7.9745480215303994e-08  -1.1671239969962673e-07  -1.5030788435789532e-07  -1.7959493061943972e-07  -2.0378755973682984e-07  -2.2227781804965246e-07  -2.3465609950166111e-07  -2.4072404026196150e-07  -2.4049951936236569e-07  -2.3421360039043085e-07  -2.2229955615476062e-07  -2.0537441928108784e-07  -1.8421378548603759e-07  -1.5972085200738488e-07  -1.3289089158784293e-07  -1.0477253419001642e-07  -7.6427347701027537e-08  -4.8889270723468762e-08  -2.3125452798118034e-08  -4.4081584238771648e-18  1.9757990931322533e-08  3.5580894685509613e-08  4.7082514514735129e-08  5.4070786085308010e-08  5.6552760558637988e-08  5.4731698318544871e-08  4.8996409714729967e-08  3.9903278660030478e-08  2.8151687350960256e-08  1.4553814946616617e-08  0.0000000000000000e+00  0.0000000000000000e+00  -4.0310719799230559e-08  -7.9494637219078684e-08  -1.1645917684454525e-07  -1.5018855280309072e-07  -1.7977899875252305e-07  -2.0446979860855814e-07  -2.2366896012353370e-07  -2.3697258088210940e-07  -2.4417719832695229e-07  -2.4528468318607295e-07  -2.4049951936235785e-07  -2.3021860247198070e-07  -2.1501397294239059e-07  -1.9560916715999217e-07  -1.7285011139969502e-07  -1.4767168895425057e-07  -1.2106127314052259e-07  -9.4020631484775647e-08  -6.7527665078061256e-08  -4.2499449617419371e-08  -1.9757990939627092e-08  -3.9112917110734467e-18  1.6228165538415197e-08  2.8549447742395096e-08  3.6768215078391736e-08  4.0875126508454152e-08  4.1044571426088132e-08  3.7624811275859596e-08  3.1121230807022186e-08  2.2173373018540320e-08  1.1526671710056626e-08  0.0000000000000000e+00  0.0000000000000000e+00  -3.9354844535265319e-08  -7.7650558409292894e-08  -1.1385295537852500e-07  -1.4699940010519638e-07  -1.7623178035309207e-07  -2.0082556275700732e-07  -2.2021385473800831e-07  -2.3400558931623674e-07  -2.4199717462506409e-07  -2.4417719832694588e-07  -2.4072404026194737e-07  -2.3199651499419060e-07  -2.1851792944310367e-07  -2.0095418949224188e-07  -1.8008681384171435e-07  -1.5678190479842416e-07  -1.3195627682986763e-07  -1.0654204874390301e-07  -8.1451060278776541e-08  -5.7540476606745910e-08  -3.5580894693223879e-08  -1.6228165545681830e-08  -3.3751347132832136e-18  1.2741761481433740e-08  2.1802555409038537e-08  2.7159764338628119e-08  2.8960496163786733e-08  2.7512588109523220e-08  2.3269212117679885e-08  1.6807705488149696e-08  8.8034734261299604e-09  0.0000000000000000e+00  0.0000000000000000e+00  -3.7579508246862523e-08  -7.4181969474643504e-08  -1.0884561194539864e-07  -1.4067424426195102e-07  -1.6886761881457530e-07  -1.9274819246337677e-07  -2.1178330156905642e-07  -2.2560194697081800e-07  -2.3400558931623171e-07  -2.3697258088209807e-07  -2.3465609950164242e-07  -2.2737569488869115e-07  -2.1560279831320651e-07  -1.9994077397854196e-07  -1.8110029577718175e-07  -1.5987100841009282e-07  -1.3709057037357898e-07  -1.1361227271232290e-07  -9.0272478010516552e-08  -6.7859126919911351e-08  -4.7082514521786340e-08  -2.8549447749037224e-08  -1.2741761487603960e-08  -2.8200422466197220e-18  9.4871313