<?xml version="1.0"?>
<VTKFile type="UnstructuredGrid"  version="0.1"  >
<UnstructuredGrid>
<Piece  NumberOfPoints="1089" NumberOfCells="2048">
<Points>
<DataArray  type="Float64"  NumberOfComponents="3"  format="ascii">0 0 0  0.03125 0 0  0.0625 0 0  0.09375 0 0  0.125 0 0  0.15625 0 0  0.1875 0 0  0.21875 0 0  0.25 0 0  0.28125 0 0  0.3125 0 0  0.34375 0 0  0.375 0 0  0.40625 0 0  0.4375 0 0  0.46875 0 0  0.5 0 0  0.53125 0 0  0.5625 0 0  0.59375 0 0  0.625 0 0  0.65625 0 0  0.6875 0 0  0.71875 0 0  0.75 0 0  0.78125 0 0  0.8125 0 0  0.84375 0 0  0.875 0 0  0.90625 0 0  0.9375 0 0  0.96875 0 0  1 0 0  0 0.03125 0  0.03125 0.03125 0  0.0625 0.03125 0  0.09375 0.03125 0  0.125 0.03125 0  0.15625 0.03125 0  0.1875 0.03125 0  0.21875 0.03125 0  0.25 0.03125 0  0.28125 0.03125 0  0.3125 0.03125 0  0.34375 0.03125 0  0.375 0.03125 0  0.40625 0.03125 0  0.4375 0.03125 0  0.46875 0.03125 0  0.5 0.03125 0  0.53125 0.03125 0  0.5625 0.03125 0  0.59375 0.03125 0  0.625 0.03125 0  0.65625 0.03125 0  0.6875 0.03125 0  0.71875 0.03125 0  0.75 0.03125 0  0.78125 0.03125 0  0.8125 0.03125 0  0.84375 0.03125 0  0.875 0.03125 0  0.90625 0.03125 0  0.9375 0.03125 0  0.96875 0.03125 0  1 0.03125 0  0 0.0625 0  0.03125 0.0625 0  0.0625 0.0625 0  0.09375 0.0625 0  0.125 0.0625 0  0.15625 0.0625 0  0.1875 0.0625 0  0.21875 0.0625 0  0.25 0.0625 0  0.28125 0.0625 0  0.3125 0.0625 0  0.34375 0.0625 0  0.375 0.0625 0  0.40625 0.0625 0  0.4375 0.0625 0  0.46875 0.0625 0  0.5 0.0625 0  0.53125 0.0625 0  0.5625 0.0625 0  0.59375 0.0625 0  0.625 0.0625 0  0.65625 0.0625 0  0.6875 0.0625 0  0.71875 0.0625 0  0.75 0.0625 0  0.78125 0.0625 0  0.8125 0.0625 0  0.84375 0.0625 0  0.875 0.0625 0  0.90625 0.0625 0  0.9375 0.0625 0  0.96875 0.0625 0  1 0.0625 0  0 0.09375 0  0.03125 0.09375 0  0.0625 0.09375 0  0.09375 0.09375 0  0.125 0.09375 0  0.15625 0.09375 0  0.1875 0.09375 0  0.21875 0.09375 0  0.25 0.09375 0  0.28125 0.09375 0  0.3125 0.09375 0  0.34375 0.09375 0  0.375 0.09375 0  0.40625 0.09375 0  0.4375 0.09375 0  0.46875 0.09375 0  0.5 0.09375 0  0.53125 0.09375 0  0.5625 0.09375 0  0.59375 0.09375 0  0.625 0.09375 0  0.65625 0.09375 0  0.6875 0.09375 0  0.71875 0.09375 0  0.75 0.09375 0  0.78125 0.09375 0  0.8125 0.09375 0  0.84375 0.09375 0  0.875 0.09375 0  0.90625 0.09375 0  0.9375 0.09375 0  0.96875 0.09375 0  1 0.09375 0  0 0.125 0  0.03125 0.125 0  0.0625 0.125 0  0.09375 0.125 0  0.125 0.125 0  0.15625 0.125 0  0.1875 0.125 0  0.21875 0.125 0  0.25 0.125 0  0.28125 0.125 0  0.3125 0.125 0  0.34375 0.125 0  0.375 0.125 0  0.40625 0.125 0  0.4375 0.125 0  0.46875 0.125 0  0.5 0.125 0  0.53125 0.125 0  0.5625 0.125 0  0.59375 0.125 0  0.625 0.125 0  0.65625 0.125 0  0.6875 0.125 0  0.71875 0.125 0  0.75 0.125 0  0.78125 0.125 0  0.8125 0.125 0  0.84375 0.125 0  0.875 0.125 0  0.90625 0.125 0  0.9375 0.125 0  0.96875 0.125 0  1 0.125 0  0 0.15625 0  0.03125 0.15625 0  0.0625 0.15625 0  0.09375 0.15625 0  0.125 0.15625 0  0.15625 0.15625 0  0.1875 0.15625 0  0.21875 0.15625 0  0.25 0.15625 0  0.28125 0.15625 0  0.3125 0.15625 0  0.34375 0.15625 0  0.375 0.15625 0  0.40625 0.15625 0  0.4375 0.15625 0  0.46875 0.15625 0  0.5 0.15625 0  0.53125 0.15625 0  0.5625 0.15625 0  0.59375 0.15625 0  0.625 0.15625 0  0.65625 0.15625 0  0.6875 0.15625 0  0.71875 0.15625 0  0.75 0.15625 0  0.78125 0.15625 0  0.8125 0.15625 0  0.84375 0.15625 0  0.875 0.15625 0  0.90625 0.15625 0  0.9375 0.15625 0  0.96875 0.15625 0  1 0.15625 0  0 0.1875 0  0.03125 0.1875 0  0.0625 0.1875 0  0.09375 0.1875 0  0.125 0.1875 0  0.15625 0.1875 0  0.1875 0.1875 0  0.21875 0.1875 0  0.25 0.1875 0  0.28125 0.1875 0  0.3125 0.1875 0  0.34375 0.1875 0  0.375 0.1875 0  0.40625 0.1875 0  0.4375 0.1875 0  0.46875 0.1875 0  0.5 0.1875 0  0.53125 0.1875 0  0.5625 0.1875 0  0.59375 0.1875 0  0.625 0.1875 0  0.65625 0.1875 0  0.6875 0.1875 0  0.71875 0.1875 0  0.75 0.1875 0  0.78125 0.1875 0  0.8125 0.1875 0  0.84375 0.1875 0  0.875 0.1875 0  0.90625 0.1875 0  0.9375 0.1875 0  0.96875 0.1875 0  1 0.1875 0  0 0.21875 0  0.03125 0.21875 0  0.0625 0.21875 0  0.09375 0.21875 0  0.125 0.21875 0  0.15625 0.21875 0  0.1875 0.21875 0  0.21875 0.21875 0  0.25 0.21875 0  0.28125 0.21875 0  0.3125 0.21875 0  0.34375 0.21875 0  0.375 0.21875 0  0.40625 0.21875 0  0.4375 0.21875 0  0.46875 0.21875 0  0.5 0.21875 0  0.53125 0.21875 0  0.5625 0.21875 0  0.59375 0.21875 0  0.625 0.21875 0  0.65625 0.21875 0  0.6875 0.21875 0  0.71875 0.21875 0  0.75 0.21875 0  0.78125 0.21875 0  0.8125 0.21875 0  0.84375 0.21875 0  0.875 0.21875 0  0.90625 0.21875 0  0.9375 0.21875 0  0.96875 0.21875 0  1 0.21875 0  0 0.25 0  0.03125 0.25 0  0.0625 0.25 0  0.09375 0.25 0  0.125 0.25 0  0.15625 0.25 0  0.1875 0.25 0  0.21875 0.25 0  0.25 0.25 0  0.28125 0.25 0  0.3125 0.25 0  0.34375 0.25 0  0.375 0.25 0  0.40625 0.25 0  0.4375 0.25 0  0.46875 0.25 0  0.5 0.25 0  0.53125 0.25 0  0.5625 0.25 0  0.59375 0.25 0  0.625 0.25 0  0.65625 0.25 0  0.6875 0.25 0  0.71875 0.25 0  0.75 0.25 0  0.78125 0.25 0  0.8125 0.25 0  0.84375 0.25 0  0.875 0.25 0  0.90625 0.25 0  0.9375 0.25 0  0.96875 0.25 0  1 0.25 0  0 0.28125 0  0.03125 0.28125 0  0.0625 0.28125 0  0.09375 0.28125 0  0.125 0.28125 0  0.15625 0.28125 0  0.1875 0.28125 0  0.21875 0.28125 0  0.25 0.28125 0  0.28125 0.28125 0  0.3125 0.28125 0  0.34375 0.28125 0  0.375 0.28125 0  0.40625 0.28125 0  0.4375 0.28125 0  0.46875 0.28125 0  0.5 0.28125 0  0.53125 0.28125 0  0.5625 0.28125 0  0.59375 0.28125 0  0.625 0.28125 0  0.65625 0.28125 0  0.6875 0.28125 0  0.71875 0.28125 0  0.75 0.28125 0  0.78125 0.28125 0  0.8125 0.28125 0  0.84375 0.28125 0  0.875 0.28125 0  0.90625 0.28125 0  0.9375 0.28125 0  0.96875 0.28125 0  1 0.28125 0  0 0.3125 0  0.03125 0.3125 0  0.0625 0.3125 0  0.09375 0.3125 0  0.125 0.3125 0  0.15625 0.3125 0  0.1875 0.3125 0  0.21875 0.3125 0  0.25 0.3125 0  0.28125 0.3125 0  0.3125 0.3125 0  0.34375 0.3125 0  0.375 0.3125 0  0.40625 0.3125 0  0.4375 0.3125 0  0.46875 0.3125 0  0.5 0.3125 0  0.53125 0.3125 0  0.5625 0.3125 0  0.59375 0.3125 0  0.625 0.3125 0  0.65625 0.3125 0  0.6875 0.3125 0  0.71875 0.3125 0  0.75 0.3125 0  0.78125 0.3125 0  0.8125 0.3125 0  0.84375 0.3125 0  0.875 0.3125 0  0.90625 0.3125 0  0.9375 0.3125 0  0.96875 0.3125 0  1 0.3125 0  0 0.34375 0  0.03125 0.34375 0  0.0625 0.34375 0  0.09375 0.34375 0  0.125 0.34375 0  0.15625 0.34375 0  0.1875 0.34375 0  0.21875 0.34375 0  0.25 0.34375 0  0.28125 0.34375 0  0.3125 0.34375 0  0.34375 0.34375 0  0.375 0.34375 0  0.40625 0.34375 0  0.4375 0.34375 0  0.46875 0.34375 0  0.5 0.34375 0  0.53125 0.34375 0  0.5625 0.34375 0  0.59375 0.34375 0  0.625 0.34375 0  0.65625 0.34375 0  0.6875 0.34375 0  0.71875 0.34375 0  0.75 0.34375 0  0.78125 0.34375 0  0.8125 0.34375 0  0.84375 0.34375 0  0.875 0.34375 0  0.90625 0.34375 0  0.9375 0.34375 0  0.96875 0.34375 0  1 0.34375 0  0 0.375 0  0.03125 0.375 0  0.0625 0.375 0  0.09375 0.375 0  0.125 0.375 0  0.15625 0.375 0  0.1875 0.375 0  0.21875 0.375 0  0.25 0.375 0  0.28125 0.375 0  0.3125 0.375 0  0.34375 0.375 0  0.375 0.375 0  0.40625 0.375 0  0.4375 0.375 0  0.46875 0.375 0  0.5 0.375 0  0.53125 0.375 0  0.5625 0.375 0  0.59375 0.375 0  0.625 0.375 0  0.65625 0.375 0  0.6875 0.375 0  0.71875 0.375 0  0.75 0.375 0  0.78125 0.375 0  0.8125 0.375 0  0.84375 0.375 0  0.875 0.375 0  0.90625 0.375 0  0.9375 0.375 0  0.96875 0.375 0  1 0.375 0  0 0.40625 0  0.03125 0.40625 0  0.0625 0.40625 0  0.09375 0.40625 0  0.125 0.40625 0  0.15625 0.40625 0  0.1875 0.40625 0  0.21875 0.40625 0  0.25 0.40625 0  0.28125 0.40625 0  0.3125 0.40625 0  0.34375 0.40625 0  0.375 0.40625 0  0.40625 0.40625 0  0.4375 0.40625 0  0.46875 0.40625 0  0.5 0.40625 0  0.53125 0.40625 0  0.5625 0.40625 0  0.59375 0.40625 0  0.625 0.40625 0  0.65625 0.40625 0  0.6875 0.40625 0  0.71875 0.40625 0  0.75 0.40625 0  0.78125 0.40625 0  0.8125 0.40625 0  0.84375 0.40625 0  0.875 0.40625 0  0.90625 0.40625 0  0.9375 0.40625 0  0.96875 0.40625 0  1 0.40625 0  0 0.4375 0  0.03125 0.4375 0  0.0625 0.4375 0  0.09375 0.4375 0  0.125 0.4375 0  0.15625 0.4375 0  0.1875 0.4375 0  0.21875 0.4375 0  0.25 0.4375 0  0.28125 0.4375 0  0.3125 0.4375 0  0.34375 0.4375 0  0.375 0.4375 0  0.40625 0.4375 0  0.4375 0.4375 0  0.46875 0.4375 0  0.5 0.4375 0  0.53125 0.4375 0  0.5625 0.4375 0  0.59375 0.4375 0  0.625 0.4375 0  0.65625 0.4375 0  0.6875 0.4375 0  0.71875 0.4375 0  0.75 0.4375 0  0.78125 0.4375 0  0.8125 0.4375 0  0.84375 0.4375 0  0.875 0.4375 0  0.90625 0.4375 0  0.9375 0.4375 0  0.96875 0.4375 0  1 0.4375 0  0 0.46875 0  0.03125 0.46875 0  0.0625 0.46875 0  0.09375 0.46875 0  0.125 0.46875 0  0.15625 0.46875 0  0.1875 0.46875 0  0.21875 0.46875 0  0.25 0.46875 0  0.28125 0.46875 0  0.3125 0.46875 0  0.34375 0.46875 0  0.375 0.46875 0  0.40625 0.46875 0  0.4375 0.46875 0  0.46875 0.46875 0  0.5 0.46875 0  0.53125 0.46875 0  0.5625 0.46875 0  0.59375 0.46875 0  0.625 0.46875 0  0.65625 0.46875 0  0.6875 0.46875 0  0.71875 0.46875 0  0.75 0.46875 0  0.78125 0.46875 0  0.8125 0.46875 0  0.84375 0.46875 0  0.875 0.46875 0  0.90625 0.46875 0  0.9375 0.46875 0  0.96875 0.46875 0  1 0.46875 0  0 0.5 0  0.03125 0.5 0  0.0625 0.5 0  0.09375 0.5 0  0.125 0.5 0  0.15625 0.5 0  0.1875 0.5 0  0.21875 0.5 0  0.25 0.5 0  0.28125 0.5 0  0.3125 0.5 0  0.34375 0.5 0  0.375 0.5 0  0.40625 0.5 0  0.4375 0.5 0  0.46875 0.5 0  0.5 0.5 0  0.53125 0.5 0  0.5625 0.5 0  0.59375 0.5 0  0.625 0.5 0  0.65625 0.5 0  0.6875 0.5 0  0.71875 0.5 0  0.75 0.5 0  0.78125 0.5 0  0.8125 0.5 0  0.84375 0.5 0  0.875 0.5 0  0.90625 0.5 0  0.9375 0.5 0  0.96875 0.5 0  1 0.5 0  0 0.53125 0  0.03125 0.53125 0  0.0625 0.53125 0  0.09375 0.53125 0  0.125 0.53125 0  0.15625 0.53125 0  0.1875 0.53125 0  0.21875 0.53125 0  0.25 0.53125 0  0.28125 0.53125 0  0.3125 0.53125 0  0.34375 0.53125 0  0.375 0.53125 0  0.40625 0.53125 0  0.4375 0.53125 0  0.46875 0.53125 0  0.5 0.53125 0  0.53125 0.53125 0  0.5625 0.53125 0  0.59375 0.53125 0  0.625 0.53125 0  0.65625 0.53125 0  0.6875 0.53125 0  0.71875 0.53125 0  0.75 0.53125 0  0.78125 0.531
[...]
<PointData  Scalars="phi"> 
<DataArray  type="Float64"  Name="phi"  format="ascii">0.0000000000000000e+00  0.0000000000000000e+00  0.0000000000000000e+00  0.0000000000000000e+00  0.0000000000000000e+00  0.0000000000000000e+00  0.0000000000000000e+00  0.0000000000000000e+00  0.0000000000000000e+00  0.0000000000000000e+00  0.0000000000000000e+00  0.0000000000000000e+00  0.0000000000000000e+00  0.0000000000000000e+00  0.0000000000000000e+00  0.0000000000000000e+00  0.0000000000000000e+00  0.0000000000000000e+00  0.0000000000000000e+00  0.0000000000000000e+00  0.0000000000000000e+00  0.0000000000000000e+00  0.0000000000000000e+00  0.0000000000000000e+00  0.0000000000000000e+00  0.0000000000000000e+00  0.0000000000000000e+00  0.0000000000000000e+00  0.0000000000000000e+00  0.0000000000000000e+00  0.0000000000000000e+00  0.0000000000000000e+00  0.0000000000000000e+00  0.0000000000000000e+00  -7.4215030626221840e-18  4.0269778054793902e-07  1.5867271690744834e-06  3.8912557551699995e-06  7.5999005902922243e-06  1.2926625858869919e-05  2.0004338308555588e-05  2.8876707657989139e-05  3.9493582797613028e-05  5.1710221809386537e-05  6.5290399344077765e-05  7.9913300659825546e-05  9.5183962010948875e-05  1.1064687717286041e-04  1.2580226478252620e-04  1.4012438554494562e-04  1.5308121621857652e-04  1.6415473180487854e-04  1.7286102069796814e-04  1.7876946079607017e-04  1.8152021773195731e-04  1.8083938837176738e-04  1.7655120153332936e-04  1.6858680074503200e-04  1.5698926783166192e-04  1.4191469902243524e-04  1.2362931838091727e-04  1.0250281847100040e-04  7.8998399694494304e-05  5.3660488702386255e-05  2.7102379232065265e-05  0.0000000000000000e+00  0.0000000000000000e+00  -4.0269778057726981e-07  -2.8994743288224467e-17  1.9644480464817083e-06  6.1691613207869313e-06  1.3182359371358792e-05  2.3433703917944164e-05  3.7191486273184131e-05  5.4546262798819289e-05  7.5401659800009311e-05  9.9472776348109333e-05  1.2629231002987768e-04  1.5522422517136842e-04  1.8548448589078423e-04  2.1616809806245920e-04  2.4628145525027768e-04  2.7477877329685563e-04  3.0060123456491985e-04  3.2271735212608532e-04  3.4016301080419596e-04  3.5207964808316573e-04  3.5774910344845773e-04  3.5662378754662154e-04  3.4835099842939562e-04  3.3279043526970062e-04  3.1002422344580233e-04  2.8035906200443326e-04  2.4432043052589322e-04  2.0263914840618993e-04  1.5623097838583561e-04  1.0617043497746168e-04  5.3660488702386411e-05  0.0000000000000000e+00  0.0000000000000000e+00  -1.5867271691176725e-06  -1.9644480465671197e-06  -6.2908071086103347e-17  5.3247311690578590e-06  1.4864042549160210e-05  2.9266071916387322e-05  4.8938650285853876e-05  7.4024789600743914e-05  1.0438886004726160e-04  1.3961408709283252e-04  1.7901155184496577e-04  2.2164042611131881e-04  2.6633873231969064e-04  3.1176350475480615e-04  3.5643885804548855e-04  3.9881015562202052e-04  4.3730222697666157e-04  4.7037941741823262e-04  4.9660517406032497e-04  5.1469888025017002e-04  5.2358774743246222e-04  5.2245175515925658e-04  5.1075989011166889e-04  4.8829626434874151e-04  4.5517508006314984e-04  4.1184383982369795e-04  3.5907466349794492e-04  2.9794405019256323e-04  2.2980189395707304e-04  1.5623097838583636e-04  7.8998399694494927e-05  0.0000000000000000e+00  0.0000000000000000e+00  -3.8912557552261502e-06  -6.1691613208979909e-06  -5.3247311692214651e-06  -1.0636714169774466e-16  1.0947216679893329e-05  2.8387145247717992e-05  5.2872747061871144e-05  8.4607154116986424e-05  1.2342522364727651e-04  1.6879003632319021e-04  2.1980457828078422e-04  2.7523825324121741e-04  3.3356729034026301e-04  3.9302756826902716e-04  4.5167788783243766e-04  5.0747131183226661e-04  5.5833186919710450e-04  6.0223370196935122e-04  6.3727962763091635e-04  6.6177609954668544e-04  6.7430167484182086e-04  6.7376633720778569e-04  6.5945936312827359e-04  6.3108385111231252e-04  5.8877653853029496e-04  5.3311209028333124e-04  4.6509163537683778e-04  3.8611592468201994e-04  2.9794405019256535e-04  2.0263914840619240e-04  1.0250281847100194e-04  0.0000000000000000e+00  0.0000000000000000e+00  -7.5999005903601970e-06  -1.3182359371493244e-05  -1.4864042549358265e-05  -1.0947216680150826e-05  -1.5580593338621522e-16  1.9074015862972903e-05  4.6979579639585216e-05  8.3989325226945416e-05  1.2992073670998414e-04  1.8413154689671891e-04  2.4553386539115162e-04  3.1262660207696482e-04  3.8354503739055620e-04  4.5612571960087936e-04  5.2798426740437404e-04  5.9660314671632758e-04  6.5942609327507534e-04  7.1395558295748042e-04  7.5784962003621270e-04  7.8901412520929442e-04  8.0568735982864000e-04  8.0651311458562627e-04  7.9059980892035964e-04  7.5756317561012578e-04  7.0755082288197766e-04  6.4124764946062087e-04  5.5986180785068244e-04  4.6509163537684217e-04  3.5907466349795083e-04  2.4432043052589848e-04  1.2362931838092031e-04  0.0000000000000000e+00  0.0000000000000000e+00  -1.2926625858948359e-05  -2.3433703918099320e-05  -2.9266071916615858e-05  -2.8387145248015060e-05  -1.9074015863332296e-05  -2.0716466799507986e-16  2.9698676172846423e-05  7.0374758865866414e-05  1.2184240808068021e-04  1.8337139388157950e-04  2.5370339903887598e-04  3.3108991977354120e-04  4.1335041455999825e-04  4.9794855986184093e-04  5.8208376189920340e-04  6.6279447251908871e-04  7.3706938820552342e-04  8.0196229239370195e-04  8.5470614494231932e-04  8.9282203502656144e-04  9.1421879450550865e-04  9.1727941115867515e-04  9.0093087196780849e-04  8.6469468688340199e-04  8.0871606904027449e-04  7.3377054937918257e-04  6.4124764946062857e-04  5.3311209028334262e-04  4.1184383982370966e-04  2.8035906200444264e-04  1.4191469902244039e-04  0.0000000000000000e+00  0.0000000000000000e+00  -2.0004338308642971e-05  -3.7191486273356966e-05  -4.8938650286108406e-05  -5.2872747062201920e-05  -4.6979579639985233e-05  -2.9698676173307364e-05  -2.5623389373723427e-16  4.2560565725866122e-05  9.7809237971537141e-05  1.6494722892617143e-04  2.4256892295206951e-04  3.2870476034415003e-04  4.2088729151338640e-04  5.1623796148746214e-04  6.1157137349983326e-04  7.0351309327860631e-04  7.8862651902548585e-04  8.6354397677152915e-04  9.2509702099898721e-04  9.7044093317767591e-04  9.9716861581228820e-04  1.0034094689419153e-03  9.8790939482371813e-04  9.5008878317809223e-04  8.9007615639060257e-04  8.0871606904028641e-04  7.0755082288199652e-04  5.8877653853031621e-04  4.5517508006316946e-04  3.1002422344581719e-04  1.5698926783166991e-04  0.0000000000000000e+00  0.0000000000000000e+00  -2.8876707658083810e-05  -5.4546262799006524e-05  -7.4024789601019586e-05  -8.4607154117344549e-05  -8.3989325227378298e-05  -7.0374758866364930e-05  -4.2560565726419933e-05  -2.9897255247059944e-16  5.7161280302856505e-05  1.2807671742029252e-04  2.1121858331928095e-04  3.0442530096760282e-04  4.0497465168119257e-04  5.0968015482405547e-04  6.1500700113832727e-04  7.1720315397129451e-04  8.1244063328703001e-04  8.9696158879428941e-04  9.6722356663794730e-04  1.0200383867832539e-03  1.0526992751005279e-03  1.0630913265981144e-03  1.0497809976654897e-03  1.0120811116456439e-03  9.5008878317810947e-04  8.6469468688343040e-04  7.5756317561015971e-04  6.3108385111234656e-04  4.8829626434877132e-04  3.3279043526972252e-04  1.6858680074504357e-04  0.0000000000000000e+00  0.0000000000000000e+00  -3.9493582797713243e-05  -7.5401659800207476e-05  -1.0438886004755329e-04  -1.2342522364765530e-04  -1.2992073671044173e-04  -1.2184240808120681e-04  -9.7809237972121621e-05  -5.7161280303486860e-05  -3.3182410617247991e-16  7.2801764534519280e-05  1.5962074766846235e-04  2.5813442794836092e-04  3.6540056828080869e-04  4.7796216555095610e-04  5.9197385985805388e-04  7.0334501373939663e-04  8.0789401505944336e-04  9.0150790904139615e-04  9.8030124257923843e-04  1.0407680161662737e-03  1.0799208851632409e-03  1.0954122233378910e-03  1.0856323396046007e-03  1.0497809976655129e-03  9.8790939482375759e-04  9.0093087196785771e-04  7.9059980892041211e-04  6.5945936312832335e-04  5.1075989011171096e-04  3.4835099842942592e-04  1.7655120153334519e-04  0.0000000000000000e+00  0.0000000000000000e+00  -5.1710221809490525e-05  -9.9472776348314925e-05  -1.3961408709313504e-04  -1.6879003632358286e-04  -1.8413154689719295e-04  -1.8337139388212450e-04  -1.6494722892677571e-04  -1.2807671742094337e-04  -7.2801764535203466e-05  -3.5203284651684310e-16  8.8637042802745626e-05  1.9065832891394785e-04  3.0293831792199086e-04  4.2178937950167493e-04  5.4309738696483722e-04  6.6247534260772598e-04  7.7542918064226439e-04  8.7752940966746309e-04  9.6458201569140376e-04  1.0327920580400880e-03  1.0789136537762815e-03  1.1003805515023264e-03  1.0954122233379205e-03  1.0630913265981660e-03  1.0034094689419821e-03  9.1727941115874931e-04  8.0651311458570065e-04  6.7376633720785378e-04  5.2245175515931285e-04  3.5662378754666160e-04  1.8083938837178817e-04  0.0000000000000000e+00  0.0000000000000000e+00  -6.5290399344183745e-05  -1.2629231003008718e-04  -1.7901155184527393e-04  -2.1980457828118394e-04  -2.4553386539163388e-04  -2.5370339903942984e-04  -2.4256892295268284e-04  -2.1121858331994055e-04  -1.5962074766915447e-04  -8.8637042803456348e-05  -3.5781539472805313e-16  1.0374393610085590e-04  2.1932393811945967e-04  3.4286350829821217e-04  4.7002388185466202e-04  5.9616666916341671e-04  7.1652953185938036e-04  8.2640817287188569e-04  9.2133766289790794e-04  9.9726613591089334e-04  1.0507141637160903e-03  1.0789136537763175e-03  1.0799208851633056e-03  1.0526992751006136e-03  9.9716861581238621e-04  9.1421879450561132e-04  8.0568735982873921e-04  6.7430167484190966e-04  5.2358774743253443e-04  3.5774910344850864e-04  1.8152021773198360e-04  0.0000000000000000e+00  0.0000000000000000e+00  -7.9913300659931825e-05  -1.5522422517157846e-04  -2.2164042611162762e-04  -2.7523825324161770e-04  -3.1262660207744729e-04  -3.3108991977409468e-04  -3.2870476034476206e-04  -3.0442530096825990e-04  -2.5813442794904890e-04  -1.9065832891465258e-04  -1.0374393610156338e-04  -3.4850187582372718e-16  1.1719602192699298e-04  2.4382175431739129e-04  3.7535967507523071e-04  5.0696716400541817e-04  6.3366033377456731e-04  7.5050460645406983e-04  8.5280472708080830e-04  9.3628691418937084e-04  9.9726613591093541e-04  1.0327920580401654e-03  1.0407680161663782e-03  1.0200383867833773e-03  9.7044093317780894e-04  8.9282203502669534e-04  7.8901412520942084e-04  6.6177609954679668e-04  5.1469888025025947e-04  3.5207964808322829e-04  1.7876946079610237e-04  0.0000000000000000e+00  0.0000000000000000e+00  -9.5183962011053853e-05  -1.8548448589099164e-04  -2.6633873231999541e-04  -3.3356729034065777e-04  -3.8354503739103146e-04  -4.1335041456054279e-04  -4.2088729151398748e-04  -4.0497465168183659e-04  -3.6540056828148138e-04  -3.0293831792267787e-04  -2.1932393812014694e-04  -1.1719602192766728e-04  -3.2455568301924194e-16  1.2813946830038907e-04  2.6257314031833648e-04  3.9830297063490899e-04  5.3017230449518404e-04  6.5306319877945411e-04  7.6209330145216698e-04  8.5280472708085578e-04  9.2133766289799696e-04  9.6458201569152660e-04  9.8030124257938653e-04  9.6722356663811134e-04  9.2509702099915776e-04  8.5470614494248661e-04  7.5784962003636784e-04  6.3727962763105122e-04  4.9660517406043252e-04  3.4016301080427082e-04  1.7286102069800652e-04  0.0000000000000000e+00  0.0000000000000000e+00  -1.1064687717296263e-04  -2.1616809806266105e-04  -3.1176350475510257e-04  -3.9302756826941081e-04  -4.5612571960134063e-04  -4.9794855986236861e-04  -5.1623796148804360e-04  -5.0968015482467683e-04  -4.7796216555160337e-04  -4.2178937950233369e-04  -3.4286350829886854e-04  -2.4382175431803208e-04  -1.2813946830100232e-04  -2.8759284276742862e-16  1.3586329239718978e-04  2.7434683331826462e-04  4.1017153717861770e-04  5.3808496858002151e-04  6.5306319877950615e-04  7.5050460645416882e-04  8.2640817287202468e-04  8.7752940966763407e-04  9.0150790904158990e-04  8.9696158879449595e-04  8.6354397677173829e-04  8.0196229239390350e-04  7.1395558295766495e-04  6.0223370196951028e-04  4.7037941741835871e-04  3.2271735212617266e-04  1.6415473180492321e-04  0.0000000000000000e+00  0.0000000000000000e+00  -1.2580226478262435e-04  -2.4628145525047143e-04  -3.5643885804577293e-04  -4.5167788783280526e-04  -5.2798426740481542e-04  -5.8208376189970734e-04  -6.1157137350038729e-04  -6.1500700113891794e-04  -5.9197385985866710e-04  -5.4309738696545879e-04  -4.7002388185527833e-04  -3.7535967507582886e-04  -2.6257314031890487e-04  -1.3586329239771824e-04  -2.4012639298777974e-16  1.3985806520081987e-04  2.7836076358745483e-04  4.1017153717867283e-04  5.3017230449529051e-04  6.3366033377471953e-04  7.1652953185957107e-04  7.7542918064248470e-04  8.0789401505968340e-04  8.1244063328727938e-04  7.8862651902573370e-04  7.3706938820575923e-04  6.5942609327528925e-04  5.5833186919728741e-04  4.3730222697680582e-04  3.0060123456501948e-04  1.5308121621862737e-04  0.0000000000000000e+00  0.0000000000000000e+00  -1.4012438554503859e-04  -2.7477877329703908e-04  -3.9881015562228956e-04  -5.0747131183261399e-04  -5.9660314671674403e-04  -6.6279447251956338e-04  -7.0351309327912673e-04  -7.1720315397184756e-04  -7.0334501373996855e-04  -6.6247534260830299e-04  -5.9616666916398559e-04  -5.0696716400596645e-04  -3.9830297063542545e-04  -2.7434683331873966e-04  -1.3985806520124566e-04  -1.8543063358170328e-16  1.3985806520087660e-04  2.7434683331837597e-04  3.9830297063507065e-04  5.0696716400562395e-04  5.9616666916365859e-04  6.6247534260799475e-04  7.0334501373968189e-04  7.1720315397158540e-04  7.0351309327889157e-04  6.6279447251935749e-04  5.9660314671656936e-04  5.0747131183247218e-04  3.9881015562218206e-04  2.7477877329696682e-04  1.4012438554500230e-04  0.0000000000000000e+00  0.0000000000000000e+00  -1.5308121621866345e-04  -3.0060123456509131e-04  -4.3730222697691272e-04  -5.5833186919742835e-04  -6.5942609327546294e-04  -7.3706938820596404e-04  -7.8862651902596756e-04  -8.1244063328754013e-04  -8.0789401505996844e-04  -7.7542918064279131e-04  -7.1652953185989633e-04  -6.3366033377506041e-04  -5.3017230449564363e-04  -4.1017153717903473e-04  -2.7836076358782205e-04  -1.3985806520118893e-04  -1.2718297665393212e-16  1.3586329239735626e-04  2.6257314031855169e-04  3.7535967507548788e-04  4.7002388185495285e-04  5.4309738696515185e-04  5.9197385985838163e-04  6.1500700113865687e-04  6.1157137350015310e-04  5.8208376189950231e-04  5.2798426740464140e-04  4.5167788783266404e-04  3.5643885804566581e-04  2.4628145525039949e-04  1.2580226478258819e-04  0.0000000000000000e+00  0.0000000000000000e+00  -1.6415473180495877e-04  -3.2271735212624340e-04  -4.7037941741846404e-04  -6.0223370196964905e-04  -7.1395558295783603e-04  -8.0196229239410527e-04  -8.6354397677196868e-04  -8.9696158879475269e-04  -9.0150790904187071e-04  -8.7752940966793623e-04  -8.2640817287234518e-04  -7.5050460645450460e-04  -6.5306319877985396e-04  -5.3808496858037810e-04  -4.1017153717897960e-04  -2.7434683331862837e-04  -1.3586329239755179e-04  -6.9207785284280682e-17  1.2813946830065416e-04  2.4382175431769592e-04  3.4286350829854762e-04  4.2178937950203114e-04  4.7796216555132202e-04  5.0968015482441944e-04  5.1623796148781266e-04  4.9794855986216640e-04  4.5612571960116911e-04  3.9302756826927154e-04  3.1176350475499697e-04  2.1616809806259007e-04  1.1064687717292697e-04  0.0000000000000000e+00  0.0000000000000000e+00  -1.7286102069804119e-04  -3.4016301080433983e-04  -4.9660517406053520e-04  -6.3727962763118664e-04  -7.5784962003653470e-04  -8.5470614494268329e-04  -9.2509702099938230e-04  -9.6722356663836179e-04  -9.8030124257966040e-04  -9.6458201569182118e-04  -9.2133766289830953e-04  -8.5280472708118332e-04  -7.6209330145250633e-04  -6.5306319877980203e-04  -5.3017230449553705e-04  -3.9830297063526385e-04  -2.6257314031868971e-04  -1.2813946830073726e-04  -1.5187994398544685e-17  1.1719602192733922e-04  2.1932393811983374e-04  3.0293831792238253e-04  3.6540056828120675e-04  4.0497465168158533e-04  4.2088729151376207e-04  4.1335041456034541e-04  3.8354503739086395e-04  3.3356729034052181e-04  2.6633873231989231e-04  1.8548448589092236e-04  9.5183962011019050e-05  0.0000000000000000e+00  0.0000000000000000e+00  -1.7876946079613580e-04  -3.5207964808329486e-04  -5.1469888025035856e-04  -6.6177609954692733e-04  -7.8901412520958173e-04  -8.9282203502688508e-04  -9.7044093317802567e-04  -1.0200383867836190e-03  -1.0407680161666425e-03  -1.0327920580404497e-03  -9.9726613591123725e-04  -9.3628691418968699e-04  -8.5280472708113583e-04  -7.5050460645440572e-04  -6.3366033377490819e-04  -5.0696716400576078e-04  -3.7535967507557175e-04  -2.4382175431772747e-04  -1.1719602192732105e-04  3.1694934563960921e-17  1.0374393610126090e-04  1.9065832891436738e-04  2.5813442794878370e-04  3.0442530096801726e-04  3.2870476034454435e-04  3.3108991977390403e-04  3.1262660207728547e-04  2.7523825324148640e-04  2.2164042611152801e-04  1.5522422517151154e-04  7.9913300659898202e-05  0.0000000000000000e+00  0.0000000000000000e+00  -1.8152021773201548e-04  -3.5774910344857212e-04  -5.2358774743262897e-04  -6.7430167484203423e-04  -8.0568735982889273e-04  -9.1421879450579227e-04  -9.9716861581259308e-04  -1.0526992751008441e-03  -1.0799208851635580e-03  -1.0789136537765888e-03  -1.0507141637163782e-03  -9.9726613591119518e-04  -9.2133766289822063e-04  -8.2640817287220618e-04  -7.1652953185970573e-04  -5.9616666916374370e-04  -4.7002388185498760e-04  -3.4286350829853315e-04  -2.1932393811977289e-04  -1.0374393610115838e-04  6.9017125800667821e-17  8.8637042803184010e-05  1.5962074766890126e-04  2.1121858331970886e-04  2.4256892295247494e-04  2.5370339903924775e-04  2.4553386539147932e-04  2.1980457828105849e-04  1.7901155184517876e-04  1.2629231003002324e-04  6.5290399344151612e-05  0.0000000000000000e+00  0.0000000000000000e+00  -1.8083938837181823e-04  -3.5662378754672144e-04  -5.2245175515940197e-04  -6.7376633720797119e-04  -8.0651311458584528e-04  -9.1727941115891986e-04  -1.0034094689421770e-03  -1.0630913265983835e-03  -1.0954122233381581e-03  -1.1003805515025821e-03  -1.0789136537765530e-03  -1.0327920580403725e-03  -9.6458201569169844e-04  -8.7752940966776525e-04  -7.7542918064257122e-04  -6.6247534260803433e-04  -5.4309738696514415e-04  -4.2178937950197753e-04  -3.0293831792228620e-04  -1.9065832891423308e-04  -8.8637042803017964e-05  9.5219699722570169e-17  7.2801764534964657e-05  1.2807671742072490e-04  1.6494722892657966e-04  1.8337139388195279e-04  1.8413154689704721e-04  1.6879003632346454e-04  1.3961408709304530e-04  9.9472776348254603e-05  5.1710221809460215e-05  0.0000000000000000e+00  0.0000000000000000e+00  -1.7655120153337310e-04  -3.4835099842948149e-04  -5.1075989011179369e-04  -6.5945936312843242e-04  -7.9059980892054655e-04  -9.0093087196801622e-04  -9.8790939482393866e-04  -1.0497809976657150e-03  -1.0856323396048217e-03  -1.0954122233381286e-03  -1.0799208851634933e-03  -1.0407680161665382e-03  -9.8030124257951251e-04  -9.0150790904167718e-04  -8.0789401505972850e-04  -7.0334501373968330e-04  -5.9197385985833924e-04  -4.7796216555123739e-04  -3.6540056828108331e-04  -2.5813442794862611e-04  -1.5962074766871559e-04  -7.2801764534758090e-05  1.0975111195767721e-16  5.7161280303283680e-05  9.7809237971939299e-05  1.2184240808104711e-04  1.2992073671030621e-04  1.2342522364754526e-04  1.0438886004746982e-04  7.5401659800151383e-05  3.9493582797685060e-05  0.0000000000000000e+00  0.0000000000000000e+00  -1.6858680074506908e-04  -3.3279043526977337e-04  -4.8829626434884700e-04  -6.3108385111244642e-04  -7.5756317561028255e-04  -8.6469468688357535e-04  -9.5008878317827503e-04  -1.0120811116458288e-03  -1.0497809976656920e-03  -1.0630913265983319e-03  -1.0526992751007588e-03  -1.0200383867834959e-03  -9.6722356663819808e-04  -8.9696158879454648e-04  -8.1244063328729098e-04  -7.1720315397155677e-04  -6.1500700113858834e-04  -5.0968015482431275e-04  -4.0497465168144384e-04  -3.0442530096784547e-04  -2.1121858331951264e-04  -1.2807671742051102e-04  -5.7161280303059684e-05  1.1306462648733397e-16  4.256056572625