<?xml version="1.0"?>
<VTKFile type="UnstructuredGrid"  version="0.1"  >
<UnstructuredGrid>
<Piece  NumberOfPoints="1089" NumberOfCells="2048">
<Points>
<DataArray  type="Float64"  NumberOfComponents="3"  format="ascii">0 0 0  0.03125 0 0  0.0625 0 0  0.09375 0 0  0.125 0 0  0.15625 0 0  0.1875 0 0  0.21875 0 0  0.25 0 0  0.28125 0 0  0.3125 0 0  0.34375 0 0  0.375 0 0  0.40625 0 0  0.4375 0 0  0.46875 0 0  0.5 0 0  0.53125 0 0  0.5625 0 0  0.59375 0 0  0.625 0 0  0.65625 0 0  0.6875 0 0  0.71875 0 0  0.75 0 0  0.78125 0 0  0.8125 0 0  0.84375 0 0  0.875 0 0  0.90625 0 0  0.9375 0 0  0.96875 0 0  1 0 0  0 0.03125 0  0.03125 0.03125 0  0.0625 0.03125 0  0.09375 0.03125 0  0.125 0.03125 0  0.15625 0.03125 0  0.1875 0.03125 0  0.21875 0.03125 0  0.25 0.03125 0  0.28125 0.03125 0  0.3125 0.03125 0  0.34375 0.03125 0  0.375 0.03125 0  0.40625 0.03125 0  0.4375 0.03125 0  0.46875 0.03125 0  0.5 0.03125 0  0.53125 0.03125 0  0.5625 0.03125 0  0.59375 0.03125 0  0.625 0.03125 0  0.65625 0.03125 0  0.6875 0.03125 0  0.71875 0.03125 0  0.75 0.03125 0  0.78125 0.03125 0  0.8125 0.03125 0  0.84375 0.03125 0  0.875 0.03125 0  0.90625 0.03125 0  0.9375 0.03125 0  0.96875 0.03125 0  1 0.03125 0  0 0.0625 0  0.03125 0.0625 0  0.0625 0.0625 0  0.09375 0.0625 0  0.125 0.0625 0  0.15625 0.0625 0  0.1875 0.0625 0  0.21875 0.0625 0  0.25 0.0625 0  0.28125 0.0625 0  0.3125 0.0625 0  0.34375 0.0625 0  0.375 0.0625 0  0.40625 0.0625 0  0.4375 0.0625 0  0.46875 0.0625 0  0.5 0.0625 0  0.53125 0.0625 0  0.5625 0.0625 0  0.59375 0.0625 0  0.625 0.0625 0  0.65625 0.0625 0  0.6875 0.0625 0  0.71875 0.0625 0  0.75 0.0625 0  0.78125 0.0625 0  0.8125 0.0625 0  0.84375 0.0625 0  0.875 0.0625 0  0.90625 0.0625 0  0.9375 0.0625 0  0.96875 0.0625 0  1 0.0625 0  0 0.09375 0  0.03125 0.09375 0  0.0625 0.09375 0  0.09375 0.09375 0  0.125 0.09375 0  0.15625 0.09375 0  0.1875 0.09375 0  0.21875 0.09375 0  0.25 0.09375 0  0.28125 0.09375 0  0.3125 0.09375 0  0.34375 0.09375 0  0.375 0.09375 0  0.40625 0.09375 0  0.4375 0.09375 0  0.46875 0.09375 0  0.5 0.09375 0  0.53125 0.09375 0  0.5625 0.09375 0  0.59375 0.09375 0  0.625 0.09375 0  0.65625 0.09375 0  0.6875 0.09375 0  0.71875 0.09375 0  0.75 0.09375 0  0.78125 0.09375 0  0.8125 0.09375 0  0.84375 0.09375 0  0.875 0.09375 0  0.90625 0.09375 0  0.9375 0.09375 0  0.96875 0.09375 0  1 0.09375 0  0 0.125 0  0.03125 0.125 0  0.0625 0.125 0  0.09375 0.125 0  0.125 0.125 0  0.15625 0.125 0  0.1875 0.125 0  0.21875 0.125 0  0.25 0.125 0  0.28125 0.125 0  0.3125 0.125 0  0.34375 0.125 0  0.375 0.125 0  0.40625 0.125 0  0.4375 0.125 0  0.46875 0.125 0  0.5 0.125 0  0.53125 0.125 0  0.5625 0.125 0  0.59375 0.125 0  0.625 0.125 0  0.65625 0.125 0  0.6875 0.125 0  0.71875 0.125 0  0.75 0.125 0  0.78125 0.125 0  0.8125 0.125 0  0.84375 0.125 0  0.875 0.125 0  0.90625 0.125 0  0.9375 0.125 0  0.96875 0.125 0  1 0.125 0  0 0.15625 0  0.03125 0.15625 0  0.0625 0.15625 0  0.09375 0.15625 0  0.125 0.15625 0  0.15625 0.15625 0  0.1875 0.15625 0  0.21875 0.15625 0  0.25 0.15625 0  0.28125 0.15625 0  0.3125 0.15625 0  0.34375 0.15625 0  0.375 0.15625 0  0.40625 0.15625 0  0.4375 0.15625 0  0.46875 0.15625 0  0.5 0.15625 0  0.53125 0.15625 0  0.5625 0.15625 0  0.59375 0.15625 0  0.625 0.15625 0  0.65625 0.15625 0  0.6875 0.15625 0  0.71875 0.15625 0  0.75 0.15625 0  0.78125 0.15625 0  0.8125 0.15625 0  0.84375 0.15625 0  0.875 0.15625 0  0.90625 0.15625 0  0.9375 0.15625 0  0.96875 0.15625 0  1 0.15625 0  0 0.1875 0  0.03125 0.1875 0  0.0625 0.1875 0  0.09375 0.1875 0  0.125 0.1875 0  0.15625 0.1875 0  0.1875 0.1875 0  0.21875 0.1875 0  0.25 0.1875 0  0.28125 0.1875 0  0.3125 0.1875 0  0.34375 0.1875 0  0.375 0.1875 0  0.40625 0.1875 0  0.4375 0.1875 0  0.46875 0.1875 0  0.5 0.1875 0  0.53125 0.1875 0  0.5625 0.1875 0  0.59375 0.1875 0  0.625 0.1875 0  0.65625 0.1875 0  0.6875 0.1875 0  0.71875 0.1875 0  0.75 0.1875 0  0.78125 0.1875 0  0.8125 0.1875 0  0.84375 0.1875 0  0.875 0.1875 0  0.90625 0.1875 0  0.9375 0.1875 0  0.96875 0.1875 0  1 0.1875 0  0 0.21875 0  0.03125 0.21875 0  0.0625 0.21875 0  0.09375 0.21875 0  0.125 0.21875 0  0.15625 0.21875 0  0.1875 0.21875 0  0.21875 0.21875 0  0.25 0.21875 0  0.28125 0.21875 0  0.3125 0.21875 0  0.34375 0.21875 0  0.375 0.21875 0  0.40625 0.21875 0  0.4375 0.21875 0  0.46875 0.21875 0  0.5 0.21875 0  0.53125 0.21875 0  0.5625 0.21875 0  0.59375 0.21875 0  0.625 0.21875 0  0.65625 0.21875 0  0.6875 0.21875 0  0.71875 0.21875 0  0.75 0.21875 0  0.78125 0.21875 0  0.8125 0.21875 0  0.84375 0.21875 0  0.875 0.21875 0  0.90625 0.21875 0  0.9375 0.21875 0  0.96875 0.21875 0  1 0.21875 0  0 0.25 0  0.03125 0.25 0  0.0625 0.25 0  0.09375 0.25 0  0.125 0.25 0  0.15625 0.25 0  0.1875 0.25 0  0.21875 0.25 0  0.25 0.25 0  0.28125 0.25 0  0.3125 0.25 0  0.34375 0.25 0  0.375 0.25 0  0.40625 0.25 0  0.4375 0.25 0  0.46875 0.25 0  0.5 0.25 0  0.53125 0.25 0  0.5625 0.25 0  0.59375 0.25 0  0.625 0.25 0  0.65625 0.25 0  0.6875 0.25 0  0.71875 0.25 0  0.75 0.25 0  0.78125 0.25 0  0.8125 0.25 0  0.84375 0.25 0  0.875 0.25 0  0.90625 0.25 0  0.9375 0.25 0  0.96875 0.25 0  1 0.25 0  0 0.28125 0  0.03125 0.28125 0  0.0625 0.28125 0  0.09375 0.28125 0  0.125 0.28125 0  0.15625 0.28125 0  0.1875 0.28125 0  0.21875 0.28125 0  0.25 0.28125 0  0.28125 0.28125 0  0.3125 0.28125 0  0.34375 0.28125 0  0.375 0.28125 0  0.40625 0.28125 0  0.4375 0.28125 0  0.46875 0.28125 0  0.5 0.28125 0  0.53125 0.28125 0  0.5625 0.28125 0  0.59375 0.28125 0  0.625 0.28125 0  0.65625 0.28125 0  0.6875 0.28125 0  0.71875 0.28125 0  0.75 0.28125 0  0.78125 0.28125 0  0.8125 0.28125 0  0.84375 0.28125 0  0.875 0.28125 0  0.90625 0.28125 0  0.9375 0.28125 0  0.96875 0.28125 0  1 0.28125 0  0 0.3125 0  0.03125 0.3125 0  0.0625 0.3125 0  0.09375 0.3125 0  0.125 0.3125 0  0.15625 0.3125 0  0.1875 0.3125 0  0.21875 0.3125 0  0.25 0.3125 0  0.28125 0.3125 0  0.3125 0.3125 0  0.34375 0.3125 0  0.375 0.3125 0  0.40625 0.3125 0  0.4375 0.3125 0  0.46875 0.3125 0  0.5 0.3125 0  0.53125 0.3125 0  0.5625 0.3125 0  0.59375 0.3125 0  0.625 0.3125 0  0.65625 0.3125 0  0.6875 0.3125 0  0.71875 0.3125 0  0.75 0.3125 0  0.78125 0.3125 0  0.8125 0.3125 0  0.84375 0.3125 0  0.875 0.3125 0  0.90625 0.3125 0  0.9375 0.3125 0  0.96875 0.3125 0  1 0.3125 0  0 0.34375 0  0.03125 0.34375 0  0.0625 0.34375 0  0.09375 0.34375 0  0.125 0.34375 0  0.15625 0.34375 0  0.1875 0.34375 0  0.21875 0.34375 0  0.25 0.34375 0  0.28125 0.34375 0  0.3125 0.34375 0  0.34375 0.34375 0  0.375 0.34375 0  0.40625 0.34375 0  0.4375 0.34375 0  0.46875 0.34375 0  0.5 0.34375 0  0.53125 0.34375 0  0.5625 0.34375 0  0.59375 0.34375 0  0.625 0.34375 0  0.65625 0.34375 0  0.6875 0.34375 0  0.71875 0.34375 0  0.75 0.34375 0  0.78125 0.34375 0  0.8125 0.34375 0  0.84375 0.34375 0  0.875 0.34375 0  0.90625 0.34375 0  0.9375 0.34375 0  0.96875 0.34375 0  1 0.34375 0  0 0.375 0  0.03125 0.375 0  0.0625 0.375 0  0.09375 0.375 0  0.125 0.375 0  0.15625 0.375 0  0.1875 0.375 0  0.21875 0.375 0  0.25 0.375 0  0.28125 0.375 0  0.3125 0.375 0  0.34375 0.375 0  0.375 0.375 0  0.40625 0.375 0  0.4375 0.375 0  0.46875 0.375 0  0.5 0.375 0  0.53125 0.375 0  0.5625 0.375 0  0.59375 0.375 0  0.625 0.375 0  0.65625 0.375 0  0.6875 0.375 0  0.71875 0.375 0  0.75 0.375 0  0.78125 0.375 0  0.8125 0.375 0  0.84375 0.375 0  0.875 0.375 0  0.90625 0.375 0  0.9375 0.375 0  0.96875 0.375 0  1 0.375 0  0 0.40625 0  0.03125 0.40625 0  0.0625 0.40625 0  0.09375 0.40625 0  0.125 0.40625 0  0.15625 0.40625 0  0.1875 0.40625 0  0.21875 0.40625 0  0.25 0.40625 0  0.28125 0.40625 0  0.3125 0.40625 0  0.34375 0.40625 0  0.375 0.40625 0  0.40625 0.40625 0  0.4375 0.40625 0  0.46875 0.40625 0  0.5 0.40625 0  0.53125 0.40625 0  0.5625 0.40625 0  0.59375 0.40625 0  0.625 0.40625 0  0.65625 0.40625 0  0.6875 0.40625 0  0.71875 0.40625 0  0.75 0.40625 0  0.78125 0.40625 0  0.8125 0.40625 0  0.84375 0.40625 0  0.875 0.40625 0  0.90625 0.40625 0  0.9375 0.40625 0  0.96875 0.40625 0  1 0.40625 0  0 0.4375 0  0.03125 0.4375 0  0.0625 0.4375 0  0.09375 0.4375 0  0.125 0.4375 0  0.15625 0.4375 0  0.1875 0.4375 0  0.21875 0.4375 0  0.25 0.4375 0  0.28125 0.4375 0  0.3125 0.4375 0  0.34375 0.4375 0  0.375 0.4375 0  0.40625 0.4375 0  0.4375 0.4375 0  0.46875 0.4375 0  0.5 0.4375 0  0.53125 0.4375 0  0.5625 0.4375 0  0.59375 0.4375 0  0.625 0.4375 0  0.65625 0.4375 0  0.6875 0.4375 0  0.71875 0.4375 0  0.75 0.4375 0  0.78125 0.4375 0  0.8125 0.4375 0  0.84375 0.4375 0  0.875 0.4375 0  0.90625 0.4375 0  0.9375 0.4375 0  0.96875 0.4375 0  1 0.4375 0  0 0.46875 0  0.03125 0.46875 0  0.0625 0.46875 0  0.09375 0.46875 0  0.125 0.46875 0  0.15625 0.46875 0  0.1875 0.46875 0  0.21875 0.46875 0  0.25 0.46875 0  0.28125 0.46875 0  0.3125 0.46875 0  0.34375 0.46875 0  0.375 0.46875 0  0.40625 0.46875 0  0.4375 0.46875 0  0.46875 0.46875 0  0.5 0.46875 0  0.53125 0.46875 0  0.5625 0.46875 0  0.59375 0.46875 0  0.625 0.46875 0  0.65625 0.46875 0  0.6875 0.46875 0  0.71875 0.46875 0  0.75 0.46875 0  0.78125 0.46875 0  0.8125 0.46875 0  0.84375 0.46875 0  0.875 0.46875 0  0.90625 0.46875 0  0.9375 0.46875 0  0.96875 0.46875 0  1 0.46875 0  0 0.5 0  0.03125 0.5 0  0.0625 0.5 0  0.09375 0.5 0  0.125 0.5 0  0.15625 0.5 0  0.1875 0.5 0  0.21875 0.5 0  0.25 0.5 0  0.28125 0.5 0  0.3125 0.5 0  0.34375 0.5 0  0.375 0.5 0  0.40625 0.5 0  0.4375 0.5 0  0.46875 0.5 0  0.5 0.5 0  0.53125 0.5 0  0.5625 0.5 0  0.59375 0.5 0  0.625 0.5 0  0.65625 0.5 0  0.6875 0.5 0  0.71875 0.5 0  0.75 0.5 0  0.78125 0.5 0  0.8125 0.5 0  0.84375 0.5 0  0.875 0.5 0  0.90625 0.5 0  0.9375 0.5 0  0.96875 0.5 0  1 0.5 0  0 0.53125 0  0.03125 0.53125 0  0.0625 0.53125 0  0.09375 0.53125 0  0.125 0.53125 0  0.15625 0.53125 0  0.1875 0.53125 0  0.21875 0.53125 0  0.25 0.53125 0  0.28125 0.53125 0  0.3125 0.53125 0  0.34375 0.53125 0  0.375 0.53125 0  0.40625 0.53125 0  0.4375 0.53125 0  0.46875 0.53125 0  0.5 0.53125 0  0.53125 0.53125 0  0.5625 0.53125 0  0.59375 0.53125 0  0.625 0.53125 0  0.65625 0.53125 0  0.6875 0.53125 0  0.71875 0.53125 0  0.75 0.53125 0  0.78125 0.531
[...]
<PointData  Scalars="phi"> 
<DataArray  type="Float64"  Name="phi"  format="ascii">0.0000000000000000e+00  0.0000000000000000e+00  0.0000000000000000e+00  0.0000000000000000e+00  0.0000000000000000e+00  0.0000000000000000e+00  0.0000000000000000e+00  0.0000000000000000e+00  0.0000000000000000e+00  0.0000000000000000e+00  0.0000000000000000e+00  0.0000000000000000e+00  0.0000000000000000e+00  0.0000000000000000e+00  0.0000000000000000e+00  0.0000000000000000e+00  0.0000000000000000e+00  0.0000000000000000e+00  0.0000000000000000e+00  0.0000000000000000e+00  0.0000000000000000e+00  0.0000000000000000e+00  0.0000000000000000e+00  0.0000000000000000e+00  0.0000000000000000e+00  0.0000000000000000e+00  0.0000000000000000e+00  0.0000000000000000e+00  0.0000000000000000e+00  0.0000000000000000e+00  0.0000000000000000e+00  0.0000000000000000e+00  0.0000000000000000e+00  0.0000000000000000e+00  -1.5809763502937650e-20  4.3089854622620034e-12  1.6978450503800139e-11  4.1637588747583796e-11  8.1321186625381006e-11  1.3831872426703451e-10  2.1405234322718987e-10  3.0898932242632940e-10  4.2259303014219740e-10  5.5331468499274533e-10  6.9862660579327114e-10  8.5509597981040602e-10  1.0184965780138463e-09  1.1839543489219179e-09  1.3461214839613695e-09  1.4993724170005635e-09  1.6380143418191314e-09  1.7565042375417887e-09  1.8496641066958834e-09  1.9128861652821097e-09  1.9423200790215635e-09  1.9350350032771833e-09  1.8891501343525613e-09  1.8039286876124748e-09  1.6798316513388738e-09  1.5185293014054641e-09  1.3228703141231154e-09  1.0968105093939490e-09  8.4530626867413130e-10  5.7418311833769341e-10  2.9000348297519395e-10  0.0000000000000000e+00  0.0000000000000000e+00  -4.3089855251443657e-12  -6.2543231876124674e-20  2.1020175691865509e-11  6.6011852743087605e-11  1.4105514851391244e-10  2.5074757063179840e-10  3.9795991558523077e-10  5.8366116325945798e-10  8.0682008658297159e-10  1.0643881612582763e-09  1.3513651130922886e-09  1.6609451720392435e-09  1.9847389220054238e-09  2.3130626578710924e-09  2.6352844965559370e-09  2.9402142379118462e-09  3.2165222196965624e-09  3.4531712263457169e-09  3.6398449399930188e-09  3.7673564874897926e-09  3.8280213386779436e-09  3.8159801253303130e-09  3.7274588321627839e-09  3.5609561987813534e-09  3.3173509910511716e-09  2.9999249795878270e-09  2.6143009514985331e-09  2.1682988907211463e-09  1.6717177297427467e-09  1.1360550920196119e-09  5.7418311833769507e-10  0.0000000000000000e+00  0.0000000000000000e+00  -1.6978450597306351e-11  -2.1020175877895889e-11  -1.3834686275839352e-19  5.6976200018333273e-11  1.5904965640152447e-10  3.1315563513457513e-10  5.2365804884126392e-10  7.9208716766087262e-10  1.1169917124251606e-09  1.4939120722259705e-09  1.9154766109201190e-09  2.3716181882638357e-09  2.8499033001649176e-09  3.3359618158083482e-09  3.8140013247024659e-09  4.2673867552123896e-09  4.6792633164860997e-09  5.0331990486096567e-09  5.3138224103248718e-09  5.5074304242472909e-09  5.6025439351746553e-09  5.5903884814998604e-09  5.4652820634737856e-09  5.2249146162019558e-09  4.8705081369617821e-09  4.4068510357478326e-09  3.8422052237728265e-09  3.1880895602368317e-09  2.4589483111825570e-09  1.6717177297427548e-09  8.4530626867413792e-10  0.0000000000000000e+00  0.0000000000000000e+00  -4.1637588870788199e-11  -6.6011852988224764e-11  -5.6976200382964891e-11  -2.4027145584270207e-19  1.1713845972924909e-10  3.0375085943962134e-10  5.6575404916313546e-10  9.0532160139167402e-10  1.3206864396317969e-09  1.8061033680720592e-09  2.3519740727564175e-09  2.9451308091132436e-09  3.5692687776961460e-09  4.2055113581312635e-09  4.8330871442285448e-09  5.4300933018543425e-09  5.9743163258347689e-09  6.4440789361524903e-09  6.8190807180945856e-09  7.0812002211939530e-09  7.2152275857902631e-09  7.2094993146203178e-09  7.0564104556090354e-09  6.7527840748880150e-09  6.3000833028089658e-09  5.7044572239757046e-09  4.9766182151871464e-09  4.1315547255369959e-09  3.1880895602368537e-09  2.1682988907211715e-09  1.0968105093939651e-09  0.0000000000000000e+00  0.0000000000000000e+00  -8.1321186777076069e-11  -1.4105514881575595e-10  -1.5904965685052734e-10  -1.1713846032100826e-10  -3.6437008191781006e-19  2.0409761725847793e-10  5.0269541264402229e-10  8.9871064922241165e-10  1.3901903526586758e-09  1.9702620738191939e-09  2.6272850633351156e-09  3.3451972124787321e-09  4.1040454697630525e-09  4.8806802610526432e-09  5.6495880003672851e-09  6.3838303275408668e-09  7.0560544580455445e-09  7.6395361442290168e-09  8.1092153383271167e-09  8.4426847717366946e-09  8.6210933192596183e-09  8.6299291397100617e-09  8.4596520570934295e-09  8.1061502983419792e-09  7.5710033151925366e-09  6.8615397268023072e-09  5.9906871227127799e-09  4.9766182151871919e-09  3.8422052237728886e-09  2.6143009514985881e-09  1.3228703141231468e-09  0.0000000000000000e+00  0.0000000000000000e+00  -1.3831872444574073e-10  -2.5074757098740541e-10  -3.1315563566357419e-10  -3.0375086013683420e-10  -2.0409761811710699e-10  -5.0584715688239997e-19  3.1778462846416632e-10  7.5303075769169119e-10  1.3037498441683640e-09  1.9621282113563887e-09  2.7147014923019071e-09  3.5427601788253202e-09  4.4229718309294298e-09  5.3281970357514952e-09  6.2284686105713799e-09  7.0920971132166201e-09  7.8868607043979010e-09  8.5812339944760376e-09  9.1456088345986281e-09  9.5534601449167831e-09  9.7824118071125837e-09  9.8151613116176184e-09  9.6402271014093373e-09  9.2524891912731944e-09  8.6535014047498191e-09  7.8515621525449088e-09  6.8615397268023866e-09  5.7044572239758229e-09  4.4068510357479550e-09  2.9999249795879246e-09  1.5185293014055179e-09  0.0000000000000000e+00  0.0000000000000000e+00  -2.1405234343116920e-10  -3.9795991599114350e-10  -5.2365804944511673e-10  -5.6575404995902683e-10  -5.0269541362419978e-10  -3.1778462961910262e-10  -6.5924272756545660e-19  4.5541065502199432e-10  1.0465878075082435e-09  1.7649841907001307e-09  2.5955593010620410e-09  3.5172382665494364e-09  4.5036186459307365e-09  5.5238990486418352e-09  6.5439947860622587e-09  7.5277984122888482e-09  8.4385372704775964e-09  9.2401762519685024e-09  9.8988120515221996e-09  1.0384005338524047e-08  1.0669999457015199e-08  1.0736778433515533e-08  1.0570923050828880e-08  1.0166231307336158e-08  9.5240784306186445e-09  8.6535014047499432e-09  7.5710033151927351e-09  6.3000833028091883e-09  4.8705081369619864e-09  3.3173509910513271e-09  1.6798316513389571e-09  0.0000000000000000e+00  0.0000000000000000e+00  -3.0898932265360167e-10  -5.8366116371173635e-10  -7.9208716833371901e-10  -9.0532160227852176e-10  -8.9871065031462982e-10  -7.5303075897866946e-10  -4.5541065649124623e-10  -8.1864265377991516e-19  6.1164262421175765e-10  1.3704587998674285e-09  2.2601013838276646e-09  3.2574408617899138e-09  4.3333486877667814e-09  5.4537285754138578e-09  6.5807570189900417e-09  7.6742861153066579e-09  8.6933553444871609e-09  9.5977545956889238e-09  1.0349578563716108e-08  1.0914712778153784e-08  1.1264193954318884e-08  1.1375391982561784e-08  1.1232967521766844e-08  1.0829567578225494e-08  1.0166231307336338e-08  9.2524891912734905e-09  8.1061502983423332e-09  6.7527840748883707e-09  5.2249146162022668e-09  3.5609561987815821e-09  1.8039286876125956e-09  0.0000000000000000e+00  0.0000000000000000e+00  -4.2259303039055942e-10  -8.0682008707723154e-10  -1.1169917131604791e-09  -1.3206864406010062e-09  -1.3901903538523516e-09  -1.3037498455749164e-09  -1.0465878091140312e-09  -6.1164262600122105e-10  -9.7790688873188756e-19  7.7900043659281699e-10  1.7079892637822691e-09  2.7621148133273413e-09  3.9098942771117182e-09  5.1143366981636435e-09  6.3342955869069094e-09  7.5259999112238324e-09  8.6447051830590178e-09  9.6464015684254388e-09  1.0489513568578183e-08  1.1136525950643862e-08  1.1555473242407937e-08  1.1721235148035966e-08  1.1616587496270168e-08  1.1232967521767084e-08  1.0570923050829294e-08  9.6402271014098502e-09  8.4596520570939771e-09  7.0564104556095549e-09  5.4652820634742248e-09  3.7274588321630999e-09  1.8891501343527267e-09  0.0000000000000000e+00  0.0000000000000000e+00  -5.5331468525979200e-10  -1.0643881617897318e-09  -1.4939120730166412e-09  -1.8061033691142471e-09  -1.9702620751027722e-09  -1.9621282128689012e-09  -1.7649841924269133e-09  -1.3704588017917541e-09  -7.7900043869605884e-10  -1.1309059424637774e-18  9.4844260285411503e-10  2.0401005734172219e-09  3.2415297026636423e-09  4.5132712541805444e-09  5.8113028541826550e-09  7.0886823282187276e-09  8.2973218416314872e-09  9.3898245248263011e-09  1.0321313186212020e-08  1.1051180836867561e-08  1.1544695568235010e-08  1.1774397730473543e-08  1.1721235148036274e-08  1.1375391982562325e-08  1.0736778433516229e-08  9.8151613116183910e-09  8.6299291397108376e-09  7.2094993146210292e-09  5.5903884815004486e-09  3.8159801253307315e-09  1.9350350032774005e-09  0.0000000000000000e+00  0.0000000000000000e+00  -6.9862660607641889e-10  -1.3513651136557981e-09  -1.9154766117584930e-09  -2.3519740738615027e-09  -2.6272850646961813e-09  -2.7147014939057508e-09  -2.5955593028931199e-09  -2.2601013858682459e-09  -1.7079892660126041e-09  -9.4844260525263172e-10  -1.2717570851805211e-18  1.1100908342699553e-09  2.3468310798840236e-09  3.6687410617098035e-09  5.0293947118362142e-09  6.3791598878115219e-09  7.6670781589669317e-09  8.8428121536703351e-09  9.8585858062817794e-09  1.0671042950530391e-08  1.1242952674448376e-08  1.1544695568235385e-08  1.1555473242408612e-08  1.1264193954319776e-08  1.0669999457016223e-08  9.7824118071136558e-09  8.6210933192606539e-09  7.2152275857911904e-09  5.6025439351754097e-09  3.8280213386784755e-09  1.9423200790218377e-09  0.0000000000000000e+00  0.0000000000000000e+00  -8.5509598010691780e-10  -1.6609451726293602e-09  -2.3716181891418098e-09  -2.9451308102705445e-09  -3.3451972139041305e-09  -3.5427601805049957e-09  -3.5172382684671174e-09  -3.2574408639270329e-09  -2.7621148156632203e-09  -2.0401005759292710e-09  -1.1100908369338963e-09  -1.3950502591187674e-18  1.2540321357552539e-09  2.6089649670786310e-09  4.0164596684818431e-09  5.4246987699432440e-09  6.7803532012311014e-09  8.0306215173455384e-09  9.1252630998825223e-09  1.0018547221664646e-08  1.0671042950530830e-08  1.1051180836868369e-08  1.1136525950644955e-08  1.0914712778155071e-08  1.0384005338525436e-08  9.5534601449181827e-09  8.4426847717380165e-09  7.0812002211951143e-09  5.5074304242482256e-09  3.7673564874904461e-09  1.9128861652824460e-09  0.0000000000000000e+00  0.0000000000000000e+00  -1.0184965783208583e-09  -1.9847389226164476e-09  -2.8499033010740118e-09  -3.5692687788944863e-09  -4.1040454712390173e-09  -4.4229718326687160e-09  -4.5036186479165001e-09  -4.3333486899798022e-09  -3.9098942795305862e-09  -3.2415297052649698e-09  -2.3468310826426722e-09  -1.2540321386445792e-09  -1.4960555967675953e-18  1.3711302522943904e-09  2.8096103496325584e-09  4.2619597245826745e-09  5.6730006443449086e-09  6.9879696020788783e-09  8.1546239853047180e-09  9.1252630998830186e-09  9.8585858062827075e-09  1.0321313186213302e-08  1.0489513568579730e-08  1.0349578563717820e-08  9.8988120515239797e-09  9.1456088346003734e-09  8.1092153383287380e-09  6.8190807180959935e-09  5.3138224103259951e-09  3.6398449399938005e-09  1.8496641066962842e-09  0.0000000000000000e+00  0.0000000000000000e+00  -1.1839543492364670e-09  -2.3130626584971267e-09  -3.3359618167397892e-09  -4.2055113593590766e-09  -4.8806802625649304e-09  -5.3281970375336079e-09  -5.5238990506765200e-09  -5.4537285776814246e-09  -5.1143367006421603e-09  -4.5132712568460504e-09  -3.6687410645365435e-09  -2.6089649700393052e-09  -1.3711302553604214e-09  -1.5709045900353326e-18  1.4537774571484439e-09  2.9355923509598717e-09  4.3889569009363643e-09  5.7576684930332512e-09  6.9879696020794217e-09  8.0306215173465707e-09  8.8428121536717876e-09  9.3898245248280878e-09  9.6464015684274621e-09  9.5977545956910810e-09  9.2401762519706845e-09  8.5812339944781419e-09  7.6395361442309441e-09  6.4440789361541505e-09  5.0331990486109727e-09  3.4531712263466285e-09  1.7565042375422551e-09  0.0000000000000000e+00  0.0000000000000000e+00  -1.3461214842804219e-09  -2.6352844971909437e-09  -3.8140013256472699e-09  -4.8330871454739909e-09  -5.6495880019013097e-09  -6.2284686123791310e-09  -6.5439947881262422e-09  -6.5807570212902887e-09  -6.3342955894211762e-09  -5.8113028568866372e-09  -5.0293947147037888e-09  -4.0164596714853186e-09  -2.8096103527429461e-09  -1.4537774603357391e-09  -1.6167363900577681e-18  1.4965227089968402e-09  2.9785425933779146e-09  4.3889569009369400e-09  5.6730006443460203e-09  6.7803532012326913e-09  7.6670781589689219e-09  8.2973218416337867e-09  8.6447051830615225e-09  8.6933553444897633e-09  8.4385372704801839e-09  7.8868607044003626e-09  7.0560544580477763e-09  5.9743163258366781e-09  4.6792633164876051e-09  3.2165222196976021e-09  1.6380143418196620e-09  0.0000000000000000e+00  0.0000000000000000e+00  -1.4993724173210445e-09  -2.9402142385497059e-09  -4.2673867561614511e-09  -5.4300933031054176e-09  -6.3838303290818464e-09  -7.0920971150325901e-09  -7.5277984143622393e-09  -7.6742861176174167e-09  -7.5259999137496185e-09  -7.0886823309351291e-09  -6.3791598906922983e-09  -5.4246987729605780e-09  -4.2619597277074461e-09  -2.9355923541619395e-09  -1.4965227122453332e-09  -1.6318079363293506e-18  1.4965227089974327e-09  2.9355923509610339e-09  4.2619597245843620e-09  5.4246987699453922e-09  6.3791598878140481e-09  7.0886823282215334e-09  7.5259999112268103e-09  7.6742861153096937e-09  7.5277984122918260e-09  7.0920971132194243e-09  6.3838303275433913e-09  5.4300933018564890e-09  4.2673867552140754e-09  2.9402142379130076e-09  1.4993724170011551e-09  0.0000000000000000e+00  0.0000000000000000e+00  -1.6380143421379547e-09  -3.2165222203311319e-09  -4.6792633174302792e-09  -5.9743163270794259e-09  -7.0560544595786378e-09  -7.8868607062046024e-09  -8.4385372725404294e-09  -8.6933553467861788e-09  -8.6447051855719974e-09  -8.2973218443341460e-09  -7.6670781618331654e-09  -6.7803532042332360e-09  -5.6730006474539711e-09  -4.3889569041223679e-09  -2.9785425966101426e-09  -1.4965227122447409e-09  -1.6155572681736749e-18  1.4537774571501818e-09  2.8096103496348046e-09  4.0164596684845282e-09  5.0293947118392508e-09  5.8113028541859405e-09  6.3342955869103315e-09  6.5807570189934828e-09  6.5439947860655989e-09  6.2284686105745000e-09  5.6495880003700760e-09  4.8330871442309080e-09  3.8140013247043171e-09  2.6352844965572087e-09  1.3461214839620167e-09  0.0000000000000000e+00  0.0000000000000000e+00  -1.7565042378558864e-09  -3.4531712269708893e-09  -5.0331990495398693e-09  -6.4440789373787517e-09  -7.6395361457394717e-09  -8.5812339962560806e-09  -9.2401762540009232e-09  -9.5977545979540751e-09  -9.6464015709014286e-09  -9.3898245274892089e-09  -8.8428121564944405e-09  -8.0306215203035776e-09  -6.9879696051423086e-09  -5.7576684961725248e-09  -4.3889569041217921e-09  -2.9355923541607777e-09  -1.4537774603340012e-09  -1.5686246380109206e-18  1.3711302522971580e-09  2.6089649670818115e-09  3.6687410617133062e-09  4.5132712541842634e-09  5.1143366981674634e-09  5.4537285754176587e-09  5.5238990486454947e-09  5.3281970357548933e-09  4.8806802610556682e-09  4.2055113581338145e-09  3.3359618158103409e-09  2.3130626578724593e-09  1.1839543489226129e-09  0.0000000000000000e+00  0.0000000000000000e+00  -1.8496641070022347e-09  -3.6398449406027828e-09  -5.3138224112321698e-09  -6.8190807192906574e-09  -8.1092153398004065e-09  -9.1456088363348934e-09  -9.8988120535046620e-09  -1.0349578565925606e-08  -1.0489513570993369e-08  -1.0321313188809562e-08  -9.8585858090365936e-09  -9.1252631027680145e-09  -8.1546239882930469e-09  -6.9879696051417668e-09  -5.6730006474528594e-09  -4.2619597277057594e-09  -2.8096103527406999e-09  -1.3711302553576539e-09  -1.4928255872023153e-18  1.2540321357588687e-09  2.3468310798879291e-09  3.2415297026677315e-09  3.9098942771158740e-09  4.3333486877708826e-09  4.5036186459346589e-09  4.4229718309330537e-09  4.1040454697662660e-09  3.5692687776988484e-09  2.8499033001670231e-09  1.9847389220068660e-09  1.0184965780145790e-09  0.0000000000000000e+00  0.0000000000000000e+00  -1.9128861655777710e-09  -3.7673564880782886e-09  -5.5074304251229575e-09  -7.0812002223483422e-09  -8.4426847731586611e-09  -9.5534601465925881e-09  -1.0384005340437497e-08  -1.0914712780286395e-08  -1.1136525952975031e-08  -1.1051180839374769e-08  -1.0671042953189431e-08  -1.0018547224449854e-08  -9.1252631027675198e-09  -8.0306215203025470e-09  -6.7803532042316470e-09  -5.4246987729584315e-09  -4.0164596714826344e-09  -2.6089649700361247e-09  -1.2540321386409645e-09  -1.3910807861646842e-18  1.1100908342741843e-09  2.0401005734216023e-09  2.7621148133317559e-09  3.2574408617942412e-09  3.5172382665535541e-09  3.5427601788291087e-09  3.3451972124820805e-09  2.9451308091160519e-09  2.3716181882660199e-09  1.6609451720407376e-09  8.5509597981116455e-10  0.0000000000000000e+00  0.0000000000000000e+00  -1.9423200793036954e-09  -3.8280213392395207e-09  -5.6025439360102806e-09  -7.2152275868918833e-09  -8.6210933206166031e-09  -9.7824118087118316e-09  -1.0669999458841262e-08  -1.1264193956354122e-08  -1.1555473244632694e-08  -1.1544695570627802e-08  -1.1242952676986100e-08  -1.0671042953188993e-08  -9.8585858090356655e-09  -8.8428121564929913e-09  -7.6670781618311752e-09  -6.3791598906897738e-09  -5.0293947147007531e-09  -3.6687410645330416e-09  -2.3468310826387666e-09  -1.1100908369296671e-09  -1.2673001515928776e-18  9.4844260285869265e-10  1.7079892637868519e-09  2.2601013838321326e-09  2.5955593010662745e-09  2.7147014923057895e-09  2.6272850633385376e-09  2.3519740727592816e-09  1.9154766109223433e-09  1.3513651130938085e-09  6.9862660579404228e-10  0.0000000000000000e+00  0.0000000000000000e+00  -1.9350350035430797e-09  -3.8159801258595829e-09  -5.5903884822874274e-09  -7.2094993156585991e-09  -8.6299291409890451e-09  -9.8151613131249598e-09  -1.0736778435236681e-08  -1.1375391984480117e-08  -1.1721235150132959e-08  -1.1774397732728947e-08  -1.1544695570627426e-08  -1.1051180839373963e-08  -1.0321313188808280e-08  -9.3898245274874239e-09  -8.2973218443318481e-09  -7.0886823309323242e-09  -5.8113028568833533e-09  -4.5132712568423314e-09  -3.2415297052608803e-09  -2.0401005759248907e-09  -9.4844260524805390e-10  -1.1262355193186507e-18  7.7900043659746792e-10  1.3704587998719432e-09  1.7649841907043934e-09  1.9621282113602867e-09  1.9702620738226222e-09  1.8061033680749238e-09  1.4939120722281923e-09  1.0643881612597931e-09  5.5331468499351460e-10  0.0000000000000000e+00  0.0000000000000000e+00  -1.8891501345996724e-09  -3.7274588326546726e-09  -5.4652820642057420e-09  -7.0564104565740218e-09  -8.4596520582821460e-09  -9.6402271028103199e-09  -1.0570923052428608e-08  -1.1232967523549868e-08  -1.1616587498219279e-08  -1.1721235150132651e-08  -1.1555473244632021e-08  -1.1136525952973940e-08  -1.0489513570991827e-08  -9.6464015708994086e-09  -8.6447051855694927e-09  -7.5259999137466406e-09  -6.3342955894177541e-09  -5.1143367006383395e-09  -3.9098942795264305e-09  -2.7621148156588052e-09  -1.7079892660080209e-09  -7.7900043869140781e-10  -9.7329561820098608e-19  6.1164262421621843e-10  1.0465878075124431e-09  1.3037498441721951e-09  1.3901903526620391e-09  1.3206864396346033e-09  1.1169917124273353e-09  8.0682008658445513e-10  4.2259303014294957e-10  0.0000000000000000e+00  0.0000000000000000e+00  -1.8039286878384343e-09  -3.5609561992311498e-09  -5.2249146168712929e-09  -6.7527840757704637e-09  -8.1061502994290434e-09  -9.2524891925543946e-09  -1.0166231308799133e-08  -1.0829567579856125e-08  -1.1232967523549629e-08  -1.1375391984479577e-08  -1.1264193956353232e-08  -1.0914712780285111e-08  -1.0349578565923897e-08  -9.5977545979519228e-09  -8.6933553467835781e-09  -7.6742861176143810e-09  -6.5807570212868477e-09  -5.4537285776776228e-09  -4.3333486899757010e-09  -3.2574408639227055e-09  -2.2601013858637771e-09  -1.3704588017872392e-09  -6.1164262599676016e-10  -8.1433987357320557e-19  4.5541065