<?xml version="1.0"?>
<VTKFile type="UnstructuredGrid"  version="0.1"  >
<UnstructuredGrid>
<Piece  NumberOfPoints="1089" NumberOfCells="2048">
<Points>
<DataArray  type="Float64"  NumberOfComponents="3"  format="ascii">0 0 0  0.03125 0 0  0.0625 0 0  0.09375 0 0  0.125 0 0  0.15625 0 0  0.1875 0 0  0.21875 0 0  0.25 0 0  0.28125 0 0  0.3125 0 0  0.34375 0 0  0.375 0 0  0.40625 0 0  0.4375 0 0  0.46875 0 0  0.5 0 0  0.53125 0 0  0.5625 0 0  0.59375 0 0  0.625 0 0  0.65625 0 0  0.6875 0 0  0.71875 0 0  0.75 0 0  0.78125 0 0  0.8125 0 0  0.84375 0 0  0.875 0 0  0.90625 0 0  0.9375 0 0  0.96875 0 0  1 0 0  0 0.03125 0  0.03125 0.03125 0  0.0625 0.03125 0  0.09375 0.03125 0  0.125 0.03125 0  0.15625 0.03125 0  0.1875 0.03125 0  0.21875 0.03125 0  0.25 0.03125 0  0.28125 0.03125 0  0.3125 0.03125 0  0.34375 0.03125 0  0.375 0.03125 0  0.40625 0.03125 0  0.4375 0.03125 0  0.46875 0.03125 0  0.5 0.03125 0  0.53125 0.03125 0  0.5625 0.03125 0  0.59375 0.03125 0  0.625 0.03125 0  0.65625 0.03125 0  0.6875 0.03125 0  0.71875 0.03125 0  0.75 0.03125 0  0.78125 0.03125 0  0.8125 0.03125 0  0.84375 0.03125 0  0.875 0.03125 0  0.90625 0.03125 0  0.9375 0.03125 0  0.96875 0.03125 0  1 0.03125 0  0 0.0625 0  0.03125 0.0625 0  0.0625 0.0625 0  0.09375 0.0625 0  0.125 0.0625 0  0.15625 0.0625 0  0.1875 0.0625 0  0.21875 0.0625 0  0.25 0.0625 0  0.28125 0.0625 0  0.3125 0.0625 0  0.34375 0.0625 0  0.375 0.0625 0  0.40625 0.0625 0  0.4375 0.0625 0  0.46875 0.0625 0  0.5 0.0625 0  0.53125 0.0625 0  0.5625 0.0625 0  0.59375 0.0625 0  0.625 0.0625 0  0.65625 0.0625 0  0.6875 0.0625 0  0.71875 0.0625 0  0.75 0.0625 0  0.78125 0.0625 0  0.8125 0.0625 0  0.84375 0.0625 0  0.875 0.0625 0  0.90625 0.0625 0  0.9375 0.0625 0  0.96875 0.0625 0  1 0.0625 0  0 0.09375 0  0.03125 0.09375 0  0.0625 0.09375 0  0.09375 0.09375 0  0.125 0.09375 0  0.15625 0.09375 0  0.1875 0.09375 0  0.21875 0.09375 0  0.25 0.09375 0  0.28125 0.09375 0  0.3125 0.09375 0  0.34375 0.09375 0  0.375 0.09375 0  0.40625 0.09375 0  0.4375 0.09375 0  0.46875 0.09375 0  0.5 0.09375 0  0.53125 0.09375 0  0.5625 0.09375 0  0.59375 0.09375 0  0.625 0.09375 0  0.65625 0.09375 0  0.6875 0.09375 0  0.71875 0.09375 0  0.75 0.09375 0  0.78125 0.09375 0  0.8125 0.09375 0  0.84375 0.09375 0  0.875 0.09375 0  0.90625 0.09375 0  0.9375 0.09375 0  0.96875 0.09375 0  1 0.09375 0  0 0.125 0  0.03125 0.125 0  0.0625 0.125 0  0.09375 0.125 0  0.125 0.125 0  0.15625 0.125 0  0.1875 0.125 0  0.21875 0.125 0  0.25 0.125 0  0.28125 0.125 0  0.3125 0.125 0  0.34375 0.125 0  0.375 0.125 0  0.40625 0.125 0  0.4375 0.125 0  0.46875 0.125 0  0.5 0.125 0  0.53125 0.125 0  0.5625 0.125 0  0.59375 0.125 0  0.625 0.125 0  0.65625 0.125 0  0.6875 0.125 0  0.71875 0.125 0  0.75 0.125 0  0.78125 0.125 0  0.8125 0.125 0  0.84375 0.125 0  0.875 0.125 0  0.90625 0.125 0  0.9375 0.125 0  0.96875 0.125 0  1 0.125 0  0 0.15625 0  0.03125 0.15625 0  0.0625 0.15625 0  0.09375 0.15625 0  0.125 0.15625 0  0.15625 0.15625 0  0.1875 0.15625 0  0.21875 0.15625 0  0.25 0.15625 0  0.28125 0.15625 0  0.3125 0.15625 0  0.34375 0.15625 0  0.375 0.15625 0  0.40625 0.15625 0  0.4375 0.15625 0  0.46875 0.15625 0  0.5 0.15625 0  0.53125 0.15625 0  0.5625 0.15625 0  0.59375 0.15625 0  0.625 0.15625 0  0.65625 0.15625 0  0.6875 0.15625 0  0.71875 0.15625 0  0.75 0.15625 0  0.78125 0.15625 0  0.8125 0.15625 0  0.84375 0.15625 0  0.875 0.15625 0  0.90625 0.15625 0  0.9375 0.15625 0  0.96875 0.15625 0  1 0.15625 0  0 0.1875 0  0.03125 0.1875 0  0.0625 0.1875 0  0.09375 0.1875 0  0.125 0.1875 0  0.15625 0.1875 0  0.1875 0.1875 0  0.21875 0.1875 0  0.25 0.1875 0  0.28125 0.1875 0  0.3125 0.1875 0  0.34375 0.1875 0  0.375 0.1875 0  0.40625 0.1875 0  0.4375 0.1875 0  0.46875 0.1875 0  0.5 0.1875 0  0.53125 0.1875 0  0.5625 0.1875 0  0.59375 0.1875 0  0.625 0.1875 0  0.65625 0.1875 0  0.6875 0.1875 0  0.71875 0.1875 0  0.75 0.1875 0  0.78125 0.1875 0  0.8125 0.1875 0  0.84375 0.1875 0  0.875 0.1875 0  0.90625 0.1875 0  0.9375 0.1875 0  0.96875 0.1875 0  1 0.1875 0  0 0.21875 0  0.03125 0.21875 0  0.0625 0.21875 0  0.09375 0.21875 0  0.125 0.21875 0  0.15625 0.21875 0  0.1875 0.21875 0  0.21875 0.21875 0  0.25 0.21875 0  0.28125 0.21875 0  0.3125 0.21875 0  0.34375 0.21875 0  0.375 0.21875 0  0.40625 0.21875 0  0.4375 0.21875 0  0.46875 0.21875 0  0.5 0.21875 0  0.53125 0.21875 0  0.5625 0.21875 0  0.59375 0.21875 0  0.625 0.21875 0  0.65625 0.21875 0  0.6875 0.21875 0  0.71875 0.21875 0  0.75 0.21875 0  0.78125 0.21875 0  0.8125 0.21875 0  0.84375 0.21875 0  0.875 0.21875 0  0.90625 0.21875 0  0.9375 0.21875 0  0.96875 0.21875 0  1 0.21875 0  0 0.25 0  0.03125 0.25 0  0.0625 0.25 0  0.09375 0.25 0  0.125 0.25 0  0.15625 0.25 0  0.1875 0.25 0  0.21875 0.25 0  0.25 0.25 0  0.28125 0.25 0  0.3125 0.25 0  0.34375 0.25 0  0.375 0.25 0  0.40625 0.25 0  0.4375 0.25 0  0.46875 0.25 0  0.5 0.25 0  0.53125 0.25 0  0.5625 0.25 0  0.59375 0.25 0  0.625 0.25 0  0.65625 0.25 0  0.6875 0.25 0  0.71875 0.25 0  0.75 0.25 0  0.78125 0.25 0  0.8125 0.25 0  0.84375 0.25 0  0.875 0.25 0  0.90625 0.25 0  0.9375 0.25 0  0.96875 0.25 0  1 0.25 0  0 0.28125 0  0.03125 0.28125 0  0.0625 0.28125 0  0.09375 0.28125 0  0.125 0.28125 0  0.15625 0.28125 0  0.1875 0.28125 0  0.21875 0.28125 0  0.25 0.28125 0  0.28125 0.28125 0  0.3125 0.28125 0  0.34375 0.28125 0  0.375 0.28125 0  0.40625 0.28125 0  0.4375 0.28125 0  0.46875 0.28125 0  0.5 0.28125 0  0.53125 0.28125 0  0.5625 0.28125 0  0.59375 0.28125 0  0.625 0.28125 0  0.65625 0.28125 0  0.6875 0.28125 0  0.71875 0.28125 0  0.75 0.28125 0  0.78125 0.28125 0  0.8125 0.28125 0  0.84375 0.28125 0  0.875 0.28125 0  0.90625 0.28125 0  0.9375 0.28125 0  0.96875 0.28125 0  1 0.28125 0  0 0.3125 0  0.03125 0.3125 0  0.0625 0.3125 0  0.09375 0.3125 0  0.125 0.3125 0  0.15625 0.3125 0  0.1875 0.3125 0  0.21875 0.3125 0  0.25 0.3125 0  0.28125 0.3125 0  0.3125 0.3125 0  0.34375 0.3125 0  0.375 0.3125 0  0.40625 0.3125 0  0.4375 0.3125 0  0.46875 0.3125 0  0.5 0.3125 0  0.53125 0.3125 0  0.5625 0.3125 0  0.59375 0.3125 0  0.625 0.3125 0  0.65625 0.3125 0  0.6875 0.3125 0  0.71875 0.3125 0  0.75 0.3125 0  0.78125 0.3125 0  0.8125 0.3125 0  0.84375 0.3125 0  0.875 0.3125 0  0.90625 0.3125 0  0.9375 0.3125 0  0.96875 0.3125 0  1 0.3125 0  0 0.34375 0  0.03125 0.34375 0  0.0625 0.34375 0  0.09375 0.34375 0  0.125 0.34375 0  0.15625 0.34375 0  0.1875 0.34375 0  0.21875 0.34375 0  0.25 0.34375 0  0.28125 0.34375 0  0.3125 0.34375 0  0.34375 0.34375 0  0.375 0.34375 0  0.40625 0.34375 0  0.4375 0.34375 0  0.46875 0.34375 0  0.5 0.34375 0  0.53125 0.34375 0  0.5625 0.34375 0  0.59375 0.34375 0  0.625 0.34375 0  0.65625 0.34375 0  0.6875 0.34375 0  0.71875 0.34375 0  0.75 0.34375 0  0.78125 0.34375 0  0.8125 0.34375 0  0.84375 0.34375 0  0.875 0.34375 0  0.90625 0.34375 0  0.9375 0.34375 0  0.96875 0.34375 0  1 0.34375 0  0 0.375 0  0.03125 0.375 0  0.0625 0.375 0  0.09375 0.375 0  0.125 0.375 0  0.15625 0.375 0  0.1875 0.375 0  0.21875 0.375 0  0.25 0.375 0  0.28125 0.375 0  0.3125 0.375 0  0.34375 0.375 0  0.375 0.375 0  0.40625 0.375 0  0.4375 0.375 0  0.46875 0.375 0  0.5 0.375 0  0.53125 0.375 0  0.5625 0.375 0  0.59375 0.375 0  0.625 0.375 0  0.65625 0.375 0  0.6875 0.375 0  0.71875 0.375 0  0.75 0.375 0  0.78125 0.375 0  0.8125 0.375 0  0.84375 0.375 0  0.875 0.375 0  0.90625 0.375 0  0.9375 0.375 0  0.96875 0.375 0  1 0.375 0  0 0.40625 0  0.03125 0.40625 0  0.0625 0.40625 0  0.09375 0.40625 0  0.125 0.40625 0  0.15625 0.40625 0  0.1875 0.40625 0  0.21875 0.40625 0  0.25 0.40625 0  0.28125 0.40625 0  0.3125 0.40625 0  0.34375 0.40625 0  0.375 0.40625 0  0.40625 0.40625 0  0.4375 0.40625 0  0.46875 0.40625 0  0.5 0.40625 0  0.53125 0.40625 0  0.5625 0.40625 0  0.59375 0.40625 0  0.625 0.40625 0  0.65625 0.40625 0  0.6875 0.40625 0  0.71875 0.40625 0  0.75 0.40625 0  0.78125 0.40625 0  0.8125 0.40625 0  0.84375 0.40625 0  0.875 0.40625 0  0.90625 0.40625 0  0.9375 0.40625 0  0.96875 0.40625 0  1 0.40625 0  0 0.4375 0  0.03125 0.4375 0  0.0625 0.4375 0  0.09375 0.4375 0  0.125 0.4375 0  0.15625 0.4375 0  0.1875 0.4375 0  0.21875 0.4375 0  0.25 0.4375 0  0.28125 0.4375 0  0.3125 0.4375 0  0.34375 0.4375 0  0.375 0.4375 0  0.40625 0.4375 0  0.4375 0.4375 0  0.46875 0.4375 0  0.5 0.4375 0  0.53125 0.4375 0  0.5625 0.4375 0  0.59375 0.4375 0  0.625 0.4375 0  0.65625 0.4375 0  0.6875 0.4375 0  0.71875 0.4375 0  0.75 0.4375 0  0.78125 0.4375 0  0.8125 0.4375 0  0.84375 0.4375 0  0.875 0.4375 0  0.90625 0.4375 0  0.9375 0.4375 0  0.96875 0.4375 0  1 0.4375 0  0 0.46875 0  0.03125 0.46875 0  0.0625 0.46875 0  0.09375 0.46875 0  0.125 0.46875 0  0.15625 0.46875 0  0.1875 0.46875 0  0.21875 0.46875 0  0.25 0.46875 0  0.28125 0.46875 0  0.3125 0.46875 0  0.34375 0.46875 0  0.375 0.46875 0  0.40625 0.46875 0  0.4375 0.46875 0  0.46875 0.46875 0  0.5 0.46875 0  0.53125 0.46875 0  0.5625 0.46875 0  0.59375 0.46875 0  0.625 0.46875 0  0.65625 0.46875 0  0.6875 0.46875 0  0.71875 0.46875 0  0.75 0.46875 0  0.78125 0.46875 0  0.8125 0.46875 0  0.84375 0.46875 0  0.875 0.46875 0  0.90625 0.46875 0  0.9375 0.46875 0  0.96875 0.46875 0  1 0.46875 0  0 0.5 0  0.03125 0.5 0  0.0625 0.5 0  0.09375 0.5 0  0.125 0.5 0  0.15625 0.5 0  0.1875 0.5 0  0.21875 0.5 0  0.25 0.5 0  0.28125 0.5 0  0.3125 0.5 0  0.34375 0.5 0  0.375 0.5 0  0.40625 0.5 0  0.4375 0.5 0  0.46875 0.5 0  0.5 0.5 0  0.53125 0.5 0  0.5625 0.5 0  0.59375 0.5 0  0.625 0.5 0  0.65625 0.5 0  0.6875 0.5 0  0.71875 0.5 0  0.75 0.5 0  0.78125 0.5 0  0.8125 0.5 0  0.84375 0.5 0  0.875 0.5 0  0.90625 0.5 0  0.9375 0.5 0  0.96875 0.5 0  1 0.5 0  0 0.53125 0  0.03125 0.53125 0  0.0625 0.53125 0  0.09375 0.53125 0  0.125 0.53125 0  0.15625 0.53125 0  0.1875 0.53125 0  0.21875 0.53125 0  0.25 0.53125 0  0.28125 0.53125 0  0.3125 0.53125 0  0.34375 0.53125 0  0.375 0.53125 0  0.40625 0.53125 0  0.4375 0.53125 0  0.46875 0.53125 0  0.5 0.53125 0  0.53125 0.53125 0  0.5625 0.53125 0  0.59375 0.53125 0  0.625 0.53125 0  0.65625 0.53125 0  0.6875 0.53125 0  0.71875 0.53125 0  0.75 0.53125 0  0.78125 0.531
[...]
<PointData  Scalars="phi"> 
<DataArray  type="Float64"  Name="phi"  format="ascii">0.0000000000000000e+00  0.0000000000000000e+00  0.0000000000000000e+00  0.0000000000000000e+00  0.0000000000000000e+00  0.0000000000000000e+00  0.0000000000000000e+00  0.0000000000000000e+00  0.0000000000000000e+00  0.0000000000000000e+00  0.0000000000000000e+00  0.0000000000000000e+00  0.0000000000000000e+00  0.0000000000000000e+00  0.0000000000000000e+00  0.0000000000000000e+00  0.0000000000000000e+00  0.0000000000000000e+00  0.0000000000000000e+00  0.0000000000000000e+00  0.0000000000000000e+00  0.0000000000000000e+00  0.0000000000000000e+00  0.0000000000000000e+00  0.0000000000000000e+00  0.0000000000000000e+00  0.0000000000000000e+00  0.0000000000000000e+00  0.0000000000000000e+00  0.0000000000000000e+00  0.0000000000000000e+00  0.0000000000000000e+00  0.0000000000000000e+00  0.0000000000000000e+00  -4.1980893868907137e-20  4.4543470642399587e-11  1.7551210502790389e-10  4.3042213073679275e-10  8.4064518287335074e-10  1.4298484079818575e-09  2.2127329743061404e-09  3.1941293053743676e-09  4.3684900538005952e-09  5.7198049317209529e-09  7.2219444260464250e-09  8.8394223663728032e-09  1.0528550764107550e-08  1.2238944866317679e-08  1.3915322529450016e-08  1.5499530334174650e-08  1.6932719777149936e-08  1.8157590737859861e-08  1.9120616468725897e-08  1.9774164715709837e-08  2.0078433244042929e-08  2.0003124900838112e-08  1.9528797168938637e-08  1.8647833651195981e-08  1.7364999742637672e-08  1.5697561661633908e-08  1.3674967158716745e-08  1.1338108909962451e-08  8.7382227416754422e-09  5.9355291312484829e-09  2.9978661273527855e-09  0.0000000000000000e+00  0.0000000000000000e+00  -4.4543470809360772e-11  -1.6604630958095614e-19  2.1729281405820424e-10  6.8238731334268976e-10  1.4581357706454925e-09  2.5920642095993251e-09  4.1138490446463269e-09  6.0335069553988164e-09  8.3403777915857023e-09  1.1002947905039051e-08  1.3969527735078656e-08  1.7169763687047791e-08  2.0516931470338363e-08  2.3910927281827179e-08  2.7241845675454281e-08  3.0394009688871131e-08  3.3250300691912898e-08  3.5696623176691583e-08  3.7626333803714384e-08  3.8944464693475579e-08  3.9571578204647286e-08  3.9447104024919156e-08  3.8532028855321515e-08  3.6810833648852716e-08  3.4292602511656340e-08  3.1011260239618933e-08  2.7024931524337187e-08  2.2414454239628596e-08  1.7281123333696191e-08  1.1743793709764830e-08  5.9355291312485002e-09  0.0000000000000000e+00  0.0000000000000000e+00  -1.7551210527614095e-10  -2.1729281455202962e-10  -3.6719798495333765e-19  5.8898265202644183e-10  1.6441512118500000e-09  3.2371979194184306e-09  5.4132340461618575e-09  8.1880785228331301e-09  1.1546728975613391e-08  1.5443084866861805e-08  1.9800943048706480e-08  2.4516236016765093e-08  2.9460434346567130e-08  3.4484989034588187e-08  3.9426648481244568e-08  4.4113450207786642e-08  4.8371160422059499e-08  5.2029916281297898e-08  5.4930816856491008e-08  5.6932209739462920e-08  5.7915430939710102e-08  5.7789775818218085e-08  5.6496507581871260e-08  5.4011746292307503e-08  5.0348124157280348e-08  4.5555140624105037e-08  3.9718201921415516e-08  3.2956382473652622e-08  2.5418997645786594e-08  1.7281123333696277e-08  8.7382227416755100e-09  0.0000000000000000e+00  0.0000000000000000e+00  -4.3042213106381028e-10  -6.8238731399329575e-10  -5.8898265299406272e-10  -6.3749016554740882e-19  1.2109007025544461e-09  3.1399775067069154e-09  5.8483949358735715e-09  9.3586219593253851e-09  1.3652391697263057e-08  1.8670314077051489e-08  2.4313168013505958e-08  3.0444833984822704e-08  3.6896763649889579e-08  4.3473822866746262e-08  4.9961290438276022e-08  5.6132749206084042e-08  6.1758570497973799e-08  6.6614668786324274e-08  7.0491191675529419e-08  7.3200811475680188e-08  7.4586298616264445e-08  7.4527083499251436e-08  7.2944551109433277e-08  6.9805860384578453e-08  6.5126136208281472e-08  5.8968943791067173e-08  5.1445020670358287e-08  4.2709307619203197e-08  3.2956382473652853e-08  2.2414454239628861e-08  1.1338108909962618e-08  0.0000000000000000e+00  0.0000000000000000e+00  -8.4064518327589581e-10  -1.4581357714464131e-09  -1.6441512130412397e-09  -1.2109007041241433e-09  -9.6630304541524491e-19  2.1098275376138281e-09  5.1965360398864344e-09  9.2902822651098342e-09  1.4370877643314816e-08  2.0367279295089966e-08  2.7159152775236814e-08  3.4580458520390278e-08  4.2424934948534874e-08  5.0453276919439055e-08  5.8401741686257017e-08  6.5991858119480615e-08  7.2940871041894924e-08  7.8972522678970495e-08  8.3827758664987154e-08  8.7274947328284836e-08  8.9119218079340374e-08  8.9210557005604365e-08  8.7450344014077313e-08  8.3796074286971449e-08  7.8264075162199887e-08  7.0930105106201015e-08  6.1927801075320727e-08  5.1445020670358764e-08  3.9718201921416165e-08  2.7024931524337756e-08  1.3674967158717074e-08  0.0000000000000000e+00  0.0000000000000000e+00  -1.4298484084559480e-09  -2.5920642105426402e-09  -3.2371979208215163e-09  -3.1399775085558258e-09  -2.1098275398902672e-09  -1.3407564328422817e-18  3.2850494240333151e-09  7.7843389311156140e-09  1.3477312264279230e-08  2.0283196751476312e-08  2.8062806582927501e-08  3.6622735113118207e-08  4.5721786854268450e-08  5.5079412325730145e-08  6.4385830413552187e-08  7.3313456413215325e-08  8.1529202047393856e-08  8.8707178479245404e-08  9.4541316051868732e-08  9.8757415857082291e-08  1.0112416823447992e-07  1.0146271116896346e-07  9.9654355841586040e-08  9.5646175197513718e-08  8.9454231647148053e-08  8.1164308726985526e-08  7.0930105106201849e-08  5.8968943791068410e-08  4.5555140624106308e-08  3.1011260239619945e-08  1.5697561661634467e-08  0.0000000000000000e+00  0.0000000000000000e+00  -2.2127329748471033e-09  -4.1138490457227404e-09  -5.4132340477629665e-09  -5.8483949379834859e-09  -5.1965360424842968e-09  -3.2850494270935149e-09  -1.7462178511005995e-18  4.7077371771640551e-09  1.0818939506883469e-08  1.8245250946793665e-08  2.6831192619107878e-08  3.6358906295397166e-08  4.6555460825203237e-08  5.7102451600080676e-08  6.7647533426017270e-08  7.7817451168613366e-08  8.7232073178310385e-08  9.5518892095767095e-08  1.0232743774960739e-07  1.0734304827008901e-07  1.1029946821208113e-07  1.1098978554720706e-07  1.0927528119432843e-07  1.0509184292147190e-07  9.8453686930947656e-08  8.9454231647149350e-08  7.8264075162201938e-08  6.5126136208283774e-08  5.0348124157282473e-08  3.4292602511657955e-08  1.7364999742638535e-08  0.0000000000000000e+00  0.0000000000000000e+00  -3.1941293059768855e-09  -6.0335069565977494e-09  -8.1880785246165299e-09  -9.3586219616755773e-09  -9.2902822680036065e-09  -7.7843389345244534e-09  -4.7077371810544443e-09  -2.1668807169663912e-18  6.3227609830072135e-09  1.4166905772604533e-08  2.3363448312599209e-08  3.3673290828175413e-08  4.4795321482825818e-08  5.6377075192860776e-08  6.8027557320865146e-08  7.9331745130510638e-08  8.9866215586211377e-08  9.9215302889644636e-08  1.0698716681419364e-07  1.1282915430115865e-07  1.1644186187719802e-07  1.1759135428582068e-07  1.1611906346201023e-07  1.1194897897118477e-07  1.0509184292147377e-07  9.5646175197516788e-08  8.3796074286975115e-08  6.9805860384582146e-08  5.4011746292310732e-08  3.6810833648855091e-08  1.8647833651197235e-08  0.0000000000000000e+00  0.0000000000000000e+00  -4.3684900544587596e-09  -8.3403777928954005e-09  -1.1546728977561598e-08  -1.3652391699830490e-08  -1.4370877646476136e-08  -1.3477312268003308e-08  -1.0818939511133697e-08  -6.3227609877418960e-09  -2.5863856250993251e-18  8.0527964710928391e-09  1.7656074711682350e-08  2.8552934454639253e-08  4.0417927043020100e-08  5.2868664183474907e-08  6.5479800407424506e-08  7.7798859443915871e-08  8.9363302071883121e-08  9.9718183443005294e-08  1.0843372327281443e-07  1.1512211364696443e-07  1.1945291644309574e-07  1.2116645449038824e-07  1.2008467558390890e-07  1.1611906346201273e-07  1.0927528119433271e-07  9.9654355841591374e-08  8.7450344014082991e-08  7.2944551109438677e-08  5.6496507581875819e-08  3.8532028855324804e-08  1.9528797168940358e-08  0.0000000000000000e+00  0.0000000000000000e+00  -5.7198049324283271e-09  -1.1002947906446703e-08  -1.5443084868955763e-08  -1.8670314079811053e-08  -2.0367279298487918e-08  -2.0283196755479211e-08  -1.8245250951362180e-08  -1.4166905777693854e-08  -8.0527964766531373e-09  -2.9884662625292958e-18  9.8043786447914658e-09  2.1089223981913050e-08  3.3508811684749258e-08  4.6655243171866497e-08  6.0073443966717131e-08  7.3278156605208945e-08  8.5772280538161766e-08  9.7065857960804654e-08  1.0669497784980854e-07  1.1423987174113356e-07  1.1934150390482662e-07  1.2171601446004181e-07  1.2116645449039144e-07  1.1759135428582629e-07  1.1098978554721428e-07  1.0146271116897149e-07  8.9210557005612425e-08  7.4527083499258821e-08  5.7789775818224186e-08  3.9447104024923497e-08  2.0003124900840368e-08  0.0000000000000000e+00  0.0000000000000000e+00  -7.2219444267961029e-09  -1.3969527736570520e-08  -1.9800943050925750e-08  -2.4313168016430713e-08  -2.7159152778838236e-08  -2.8062806587170157e-08  -2.6831192623950100e-08  -2.3363448317993515e-08  -1.7656074717575932e-08  -9.8043786511267312e-09  -3.3575826595405678e-18  1.1475392223022158e-08  2.4260003126936603e-08  3.7925042998825153e-08  5.1990589546086016e-08  6.5943578176694291e-08  7.9257233999425217e-08  9.1411202224738053e-08  1.0191160516742489e-07  1.1031025516802760e-07  1.1622228343556433e-07  1.1934150390483051e-07  1.1945291644310275e-07  1.1644186187720729e-07  1.1029946821209177e-07  1.0112416823449105e-07  8.9119218079351134e-08  7.4586298616274080e-08  5.7915430939717937e-08  3.9571578204652805e-08  2.0078433244045781e-08  0.0000000000000000e+00  0.0000000000000000e+00  -8.8394223671574832e-09  -1.7169763688609336e-08  -2.4516236019088058e-08  -3.0444833987884172e-08  -3.4580458524160098e-08  -3.6622735117559307e-08  -3.6358906300465944e-08  -3.3673290833822178e-08  -2.8552934460808733e-08  -2.1089223988544974e-08  -1.1475392230051852e-08  -3.6795196674609885e-18  1.2963363153089003e-08  2.6969771621387432e-08  4.1519530287579729e-08  5.6076984074066256e-08  7.0090851969996751e-08  8.3015307208706332e-08  9.4330995172177983e-08  1.0356518154504551e-07  1.1031025516803217e-07  1.1423987174114195e-07  1.1512211364697577e-07  1.1282915430117201e-07  1.0734304827010344e-07  9.8757415857096822e-08  8.7274947328298561e-08  7.3200811475692245e-08  5.6932209739472621e-08  3.8944464693482368e-08  1.9774164715713332e-08  0.0000000000000000e+00  0.0000000000000000e+00  -1.0528550764919606e-08  -2.0516931471954416e-08  -2.9460434348971218e-08  -3.6896763653058005e-08  -4.2424934952436453e-08  -4.5721786858864835e-08  -4.6555460830449309e-08  -4.4795321488670173e-08  -4.0417927049405544e-08  -3.3508811691613415e-08  -2.4260003134212534e-08  -1.2963363160705898e-08  -3.9419350424755287e-18  1.4173846812569574e-08  2.9043912214257193e-08  4.4057349126872947e-08  5.8643766276349247e-08  7.2237054385374022e-08  8.4297163531979796e-08  9.4330995172183132e-08  1.0191160516743454e-07  1.0669497784982187e-07  1.0843372327283049e-07  1.0698716681421142e-07  1.0232743774962586e-07  9.4541316051886877e-08  8.3827758665003989e-08  7.0491191675544030e-08  5.4930816856502675e-08  3.7626333803722504e-08  1.9120616468730060e-08  0.0000000000000000e+00  0.0000000000000000e+00  -1.2238944867149237e-08  -2.3910927283482067e-08  -3.4484989037050089e-08  -4.3473822869990921e-08  -5.0453276923434562e-08  -5.5079412330437246e-08  -5.7102451605453194e-08  -5.6377075198846063e-08  -5.2868664190014405e-08  -4.6655243178896334e-08  -3.7925043006276786e-08  -2.6969771629188348e-08  -1.4173846820643999e-08  -4.1348349548807427e-18  1.5028199503569311e-08  3.0346231657627953e-08  4.5370162784863304e-08  5.9519007059940694e-08  7.2237054385379660e-08  8.3015307208717052e-08  9.1411202224753127e-08  9.7065857960823209e-08  9.9718183443026311e-08  9.9215302889667029e-08  9.5518892095789780e-08  8.8707178479267281e-08  7.8972522678990519e-08  6.6614668786341519e-08  5.2029916281311576e-08  3.5696623176701053e-08  1.8157590737864708e-08  0.0000000000000000e+00  0.0000000000000000e+00  -1.3915322530293029e-08  -2.7241845677131995e-08  -3.9426648483740463e-08  -4.9961290441565534e-08  -5.8401741690307807e-08  -6.4385830418324490e-08  -6.7647533431464248e-08  -6.8027557326933449e-08  -6.5479800414054802e-08  -6.0073443973844649e-08  -5.1990589553641272e-08  -4.1519530295489210e-08  -2.9043912222444071e-08  -1.5028199511954239e-08  -4.2509367360433901e-18  1.5470071929967043e-08  3.0790223142197524e-08  4.5370162784869279e-08  5.8643766276360808e-08  7.0090851970013268e-08  7.9257233999445903e-08  8.5772280538185668e-08  8.9363302071909154e-08  8.9866215586238416e-08  8.7232073178337265e-08  8.1529202047419426e-08  7.2940871041918112e-08  6.1758570497993638e-08  4.8371160422075143e-08  3.3250300691923704e-08  1.6932719777155449e-08  0.0000000000000000e+00  0.0000000000000000e+00  -1.5499530335020985e-08  -3.0394009690555476e-08  -4.4113450210292437e-08  -5.6132749209386644e-08  -6.5991858123547578e-08  -7.3313456418006739e-08  -7.7817451174082234e-08  -7.9331745136603412e-08  -7.7798859450572981e-08  -7.3278156612365354e-08  -6.5943578184280252e-08  -5.6076984082007958e-08  -4.4057349135093256e-08  -3.0346231666047209e-08  -1.5470071938503812e-08  -4.2859444990122956e-18  1.5470071929973201e-08  3.0346231657640023e-08  4.4057349126890476e-08  5.6076984074088570e-08  6.5943578176720523e-08  7.3278156605238101e-08  7.7798859443946828e-08  7.9331745130542177e-08  7.7817451168644296e-08  7.3313456413244455e-08  6.5991858119506834e-08  5.6132749206106343e-08  4.4113450207804158e-08  3.0394009688883194e-08  1.5499530334180801e-08  0.0000000000000000e+00  0.0000000000000000e+00  -1.6932719777991441e-08  -3.3250300693587661e-08  -4.8371160424551066e-08  -6.1758570501257693e-08  -7.2940871045938911e-08  -8.1529202052158244e-08  -8.7232073183748482e-08  -8.9866215592269939e-08  -8.9363302078502896e-08  -8.5772280545278140e-08  -7.9257234006968839e-08  -7.0090851977894195e-08  -5.8643766284523830e-08  -4.5370162793235801e-08  -3.0790223150686977e-08  -1.5470071938497654e-08  -4.2386854927260675e-18  1.5028199503587370e-08  2.9043912214280532e-08  4.1519530287607628e-08  5.1990589546117561e-08  6.0073443966751264e-08  6.5479800407460055e-08  6.8027557320900880e-08  6.7647533426051959e-08  6.4385830413584612e-08  5.8401741686286015e-08  4.9961290438300580e-08  3.9426648481263798e-08  2.7241845675467489e-08  1.3915322529456740e-08  0.0000000000000000e+00  0.0000000000000000e+00  -1.8157590738688451e-08  -3.5696623178340664e-08  -5.2029916283751302e-08  -6.6614668789557915e-08  -7.8972522682952635e-08  -8.8707178483937000e-08  -9.5518892101122170e-08  -9.9215302895610766e-08  -9.9718183449524152e-08  -9.7065857967812620e-08  -9.1411202232166809e-08  -8.3015307216483630e-08  -7.2237054393424316e-08  -5.9519007068185991e-08  -4.5370162793229825e-08  -3.0346231666035132e-08  -1.5028199511936183e-08  -4.1111447216386144e-18  1.4173846812598329e-08  2.6969771621420480e-08  3.7925042998861542e-08  4.6655243171905136e-08  5.2868664183514599e-08  5.6377075192900262e-08  5.7102451600118693e-08  5.5079412325765442e-08  5.0453276919470481e-08  4.3473822866772764e-08  3.4484989034608887e-08  2.3910927281841374e-08  1.2238944866324898e-08  0.0000000000000000e+00  0.0000000000000000e+00  -1.9120616469533633e-08  -3.7626333805321987e-08  -5.4930816858882725e-08  -7.0491191678681798e-08  -8.3827758668869305e-08  -9.4541316056442564e-08  -1.0232743775482810e-07  -1.0698716682001014e-07  -1.0843372327916989e-07  -1.0669497785664091e-07  -1.0191160517466759e-07  -9.4330995179760556e-08  -8.4297163539828629e-08  -7.2237054393418677e-08  -5.8643766284512276e-08  -4.4057349135075726e-08  -2.9043912222420731e-08  -1.4173846820615246e-08  -3.9083745825392908e-18  1.2963363153126563e-08  2.4260003126977185e-08  3.3508811684791749e-08  4.0417927043063279e-08  4.4795321482868428e-08  4.6555460825243988e-08  4.5721786854306104e-08  4.2424934948568259e-08  3.6896763649917650e-08  2.9460434346589004e-08  2.0516931470353345e-08  1.0528550764115163e-08  0.0000000000000000e+00  0.0000000000000000e+00  -1.9774164716488992e-08  -3.8944464695026317e-08  -5.6932209741770079e-08  -7.3200811478721168e-08  -8.7274947332029833e-08  -9.8757415861494617e-08  -1.0734304827512543e-07  -1.1282915430676991e-07  -1.1512211365309569e-07  -1.1423987174772498e-07  -1.1031025517501497e-07  -1.0356518155236085e-07  -9.4330995179755408e-08  -8.3015307216472896e-08  -7.0090851977877678e-08  -5.6076984081985650e-08  -4.1519530295461318e-08  -2.6969771629155303e-08  -1.2963363160668338e-08  -3.6382732545234160e-18  1.1475392223066096e-08  2.1089223981958559e-08  2.8552934454685119e-08  3.3673290828220378e-08  3.6358906295439948e-08  3.6622735113157575e-08  3.4580458520425066e-08  3.0444833984851880e-08  2.4516236016787788e-08  1.7169763687063315e-08  8.8394223663806862e-09  0.0000000000000000e+00  0.0000000000000000e+00  -2.0078433244786068e-08  -3.9571578206126371e-08  -5.7915430941910700e-08  -7.4586298619165017e-08  -8.9119218082912497e-08  -1.0112416823868862e-07  -1.1029946821688520e-07  -1.1644186188255046e-07  -1.1945291644894429e-07  -1.1934150391111417e-07  -1.1622228344222963e-07  -1.1031025517501041e-07  -1.0191160517465796e-07  -9.1411202232151748e-08  -7.9257234006948153e-08  -6.5943578184254021e-08  -5.1990589553609740e-08  -3.7925043006240397e-08  -2.4260003134171952e-08  -1.1475392230007913e-08  -3.3112764639002553e-18  9.8043786448390237e-09  1.7656074711729965e-08  2.3363448312645634e-08  2.6831192619151864e-08  2.8062806582967834e-08  2.7159152775272366e-08  2.4313168013535717e-08  1.9800943048729592e-08  1.3969527735094446e-08  7.2219444260544379e-09  0.0000000000000000e+00  0.0000000000000000e+00  -2.0003124901538164e-08  -3.9447104026312505e-08  -5.7789775820291159e-08  -7.4527083501983964e-08  -8.9210557008969601e-08  -1.0146271117292844e-07  -1.1098978555173301e-07  -1.1759135429086333e-07  -1.2116645449589834e-07  -1.2171601446596561e-07  -1.1934150391111028e-07  -1.1423987174771662e-07  -1.0669497785662761e-07  -9.7065857967794092e-08  -8.5772280545254264e-08  -7.3278156612336211e-08  -6.0073443973810516e-08  -4.6655243178857695e-08  -3.3508811691570924e-08  -2.1089223988499463e-08  -9.8043786510791717e-09  -2.9399440781637209e-18  8.0527964711411597e-09  1.4166905772651440e-08  1.8245250946837952e-08  2.0283196751516810e-08  2.0367279295125581e-08  1.8670314077081251e-08  1.5443084866884887e-08  1.1002947905054811e-08  5.7198049317289451e-09  0.0000000000000000e+00  0.0000000000000000e+00  -1.9528797169588950e-08  -3.8532028856615894e-08  -5.6496507583797121e-08  -7.2944551111971808e-08  -8.7450344017203685e-08  -9.9654355845269667e-08  -1.0927528119853325e-07  -1.1611906346669517e-07  -1.2008467558902821e-07  -1.2116645449589514e-07  -1.1945291644893727e-07  -1.1512211365308438e-07  -1.0843372327915386e-07  -9.9718183449503162e-08  -8.9363302078476876e-08  -7.7798859450542038e-08  -6.5479800414019240e-08  -5.2868664189974707e-08  -4.0417927049362352e-08  -2.8552934460762865e-08  -1.7656074717528313e-08  -8.0527964766048167e-09  -2.5384774617954627e-18  6.3227609830535571e-09  1.0818939506927098e-08  1.3477312264319034e-08  1.4370877643349757e-08  1.3652391697292214e-08  1.1546728975635981e-08  8.3403777916011143e-09  4.3684900538084087e-09  0.0000000000000000e+00  0.0000000000000000e+00  -1.8647833651790389e-08  -3.6810833650035862e-08  -5.4011746294067902e-08  -6.9805860386898927e-08  -8.3796074289829312e-08  -9.5646175200881045e-08  -1.0509184292531575e-07  -1.1194897897546758e-07  -1.1611906346669268e-07  -1.1759135429085773e-07  -1.1644186188254121e-07  -1.1282915430675657e-07  -1.0698716681999238e-07  -9.9215302895588385e-08  -8.9866215592242913e-08  -7.9331745136571873e-08  -6.8027557326897702e-08  -5.6377075198806564e-08  -4.4795321488627564e-08  -3.3673290833777212e-08  -2.3363448317947084e-08  -1.4166905777646945e-08  -6.3227609876955508e-09  -2.1221782620231215e-18  4.7077371