<?xml version="1.0"?>
<VTKFile type="UnstructuredGrid"  version="0.1"  >
<UnstructuredGrid>
<Piece  NumberOfPoints="1089" NumberOfCells="2048">
<Points>
<DataArray  type="Float64"  NumberOfComponents="3"  format="ascii">0 0 0  0.03125 0 0  0.0625 0 0  0.09375 0 0  0.125 0 0  0.15625 0 0  0.1875 0 0  0.21875 0 0  0.25 0 0  0.28125 0 0  0.3125 0 0  0.34375 0 0  0.375 0 0  0.40625 0 0  0.4375 0 0  0.46875 0 0  0.5 0 0  0.53125 0 0  0.5625 0 0  0.59375 0 0  0.625 0 0  0.65625 0 0  0.6875 0 0  0.71875 0 0  0.75 0 0  0.78125 0 0  0.8125 0 0  0.84375 0 0  0.875 0 0  0.90625 0 0  0.9375 0 0  0.96875 0 0  1 0 0  0 0.03125 0  0.03125 0.03125 0  0.0625 0.03125 0  0.09375 0.03125 0  0.125 0.03125 0  0.15625 0.03125 0  0.1875 0.03125 0  0.21875 0.03125 0  0.25 0.03125 0  0.28125 0.03125 0  0.3125 0.03125 0  0.34375 0.03125 0  0.375 0.03125 0  0.40625 0.03125 0  0.4375 0.03125 0  0.46875 0.03125 0  0.5 0.03125 0  0.53125 0.03125 0  0.5625 0.03125 0  0.59375 0.03125 0  0.625 0.03125 0  0.65625 0.03125 0  0.6875 0.03125 0  0.71875 0.03125 0  0.75 0.03125 0  0.78125 0.03125 0  0.8125 0.03125 0  0.84375 0.03125 0  0.875 0.03125 0  0.90625 0.03125 0  0.9375 0.03125 0  0.96875 0.03125 0  1 0.03125 0  0 0.0625 0  0.03125 0.0625 0  0.0625 0.0625 0  0.09375 0.0625 0  0.125 0.0625 0  0.15625 0.0625 0  0.1875 0.0625 0  0.21875 0.0625 0  0.25 0.0625 0  0.28125 0.0625 0  0.3125 0.0625 0  0.34375 0.0625 0  0.375 0.0625 0  0.40625 0.0625 0  0.4375 0.0625 0  0.46875 0.0625 0  0.5 0.0625 0  0.53125 0.0625 0  0.5625 0.0625 0  0.59375 0.0625 0  0.625 0.0625 0  0.65625 0.0625 0  0.6875 0.0625 0  0.71875 0.0625 0  0.75 0.0625 0  0.78125 0.0625 0  0.8125 0.0625 0  0.84375 0.0625 0  0.875 0.0625 0  0.90625 0.0625 0  0.9375 0.0625 0  0.96875 0.0625 0  1 0.0625 0  0 0.09375 0  0.03125 0.09375 0  0.0625 0.09375 0  0.09375 0.09375 0  0.125 0.09375 0  0.15625 0.09375 0  0.1875 0.09375 0  0.21875 0.09375 0  0.25 0.09375 0  0.28125 0.09375 0  0.3125 0.09375 0  0.34375 0.09375 0  0.375 0.09375 0  0.40625 0.09375 0  0.4375 0.09375 0  0.46875 0.09375 0  0.5 0.09375 0  0.53125 0.09375 0  0.5625 0.09375 0  0.59375 0.09375 0  0.625 0.09375 0  0.65625 0.09375 0  0.6875 0.09375 0  0.71875 0.09375 0  0.75 0.09375 0  0.78125 0.09375 0  0.8125 0.09375 0  0.84375 0.09375 0  0.875 0.09375 0  0.90625 0.09375 0  0.9375 0.09375 0  0.96875 0.09375 0  1 0.09375 0  0 0.125 0  0.03125 0.125 0  0.0625 0.125 0  0.09375 0.125 0  0.125 0.125 0  0.15625 0.125 0  0.1875 0.125 0  0.21875 0.125 0  0.25 0.125 0  0.28125 0.125 0  0.3125 0.125 0  0.34375 0.125 0  0.375 0.125 0  0.40625 0.125 0  0.4375 0.125 0  0.46875 0.125 0  0.5 0.125 0  0.53125 0.125 0  0.5625 0.125 0  0.59375 0.125 0  0.625 0.125 0  0.65625 0.125 0  0.6875 0.125 0  0.71875 0.125 0  0.75 0.125 0  0.78125 0.125 0  0.8125 0.125 0  0.84375 0.125 0  0.875 0.125 0  0.90625 0.125 0  0.9375 0.125 0  0.96875 0.125 0  1 0.125 0  0 0.15625 0  0.03125 0.15625 0  0.0625 0.15625 0  0.09375 0.15625 0  0.125 0.15625 0  0.15625 0.15625 0  0.1875 0.15625 0  0.21875 0.15625 0  0.25 0.15625 0  0.28125 0.15625 0  0.3125 0.15625 0  0.34375 0.15625 0  0.375 0.15625 0  0.40625 0.15625 0  0.4375 0.15625 0  0.46875 0.15625 0  0.5 0.15625 0  0.53125 0.15625 0  0.5625 0.15625 0  0.59375 0.15625 0  0.625 0.15625 0  0.65625 0.15625 0  0.6875 0.15625 0  0.71875 0.15625 0  0.75 0.15625 0  0.78125 0.15625 0  0.8125 0.15625 0  0.84375 0.15625 0  0.875 0.15625 0  0.90625 0.15625 0  0.9375 0.15625 0  0.96875 0.15625 0  1 0.15625 0  0 0.1875 0  0.03125 0.1875 0  0.0625 0.1875 0  0.09375 0.1875 0  0.125 0.1875 0  0.15625 0.1875 0  0.1875 0.1875 0  0.21875 0.1875 0  0.25 0.1875 0  0.28125 0.1875 0  0.3125 0.1875 0  0.34375 0.1875 0  0.375 0.1875 0  0.40625 0.1875 0  0.4375 0.1875 0  0.46875 0.1875 0  0.5 0.1875 0  0.53125 0.1875 0  0.5625 0.1875 0  0.59375 0.1875 0  0.625 0.1875 0  0.65625 0.1875 0  0.6875 0.1875 0  0.71875 0.1875 0  0.75 0.1875 0  0.78125 0.1875 0  0.8125 0.1875 0  0.84375 0.1875 0  0.875 0.1875 0  0.90625 0.1875 0  0.9375 0.1875 0  0.96875 0.1875 0  1 0.1875 0  0 0.21875 0  0.03125 0.21875 0  0.0625 0.21875 0  0.09375 0.21875 0  0.125 0.21875 0  0.15625 0.21875 0  0.1875 0.21875 0  0.21875 0.21875 0  0.25 0.21875 0  0.28125 0.21875 0  0.3125 0.21875 0  0.34375 0.21875 0  0.375 0.21875 0  0.40625 0.21875 0  0.4375 0.21875 0  0.46875 0.21875 0  0.5 0.21875 0  0.53125 0.21875 0  0.5625 0.21875 0  0.59375 0.21875 0  0.625 0.21875 0  0.65625 0.21875 0  0.6875 0.21875 0  0.71875 0.21875 0  0.75 0.21875 0  0.78125 0.21875 0  0.8125 0.21875 0  0.84375 0.21875 0  0.875 0.21875 0  0.90625 0.21875 0  0.9375 0.21875 0  0.96875 0.21875 0  1 0.21875 0  0 0.25 0  0.03125 0.25 0  0.0625 0.25 0  0.09375 0.25 0  0.125 0.25 0  0.15625 0.25 0  0.1875 0.25 0  0.21875 0.25 0  0.25 0.25 0  0.28125 0.25 0  0.3125 0.25 0  0.34375 0.25 0  0.375 0.25 0  0.40625 0.25 0  0.4375 0.25 0  0.46875 0.25 0  0.5 0.25 0  0.53125 0.25 0  0.5625 0.25 0  0.59375 0.25 0  0.625 0.25 0  0.65625 0.25 0  0.6875 0.25 0  0.71875 0.25 0  0.75 0.25 0  0.78125 0.25 0  0.8125 0.25 0  0.84375 0.25 0  0.875 0.25 0  0.90625 0.25 0  0.9375 0.25 0  0.96875 0.25 0  1 0.25 0  0 0.28125 0  0.03125 0.28125 0  0.0625 0.28125 0  0.09375 0.28125 0  0.125 0.28125 0  0.15625 0.28125 0  0.1875 0.28125 0  0.21875 0.28125 0  0.25 0.28125 0  0.28125 0.28125 0  0.3125 0.28125 0  0.34375 0.28125 0  0.375 0.28125 0  0.40625 0.28125 0  0.4375 0.28125 0  0.46875 0.28125 0  0.5 0.28125 0  0.53125 0.28125 0  0.5625 0.28125 0  0.59375 0.28125 0  0.625 0.28125 0  0.65625 0.28125 0  0.6875 0.28125 0  0.71875 0.28125 0  0.75 0.28125 0  0.78125 0.28125 0  0.8125 0.28125 0  0.84375 0.28125 0  0.875 0.28125 0  0.90625 0.28125 0  0.9375 0.28125 0  0.96875 0.28125 0  1 0.28125 0  0 0.3125 0  0.03125 0.3125 0  0.0625 0.3125 0  0.09375 0.3125 0  0.125 0.3125 0  0.15625 0.3125 0  0.1875 0.3125 0  0.21875 0.3125 0  0.25 0.3125 0  0.28125 0.3125 0  0.3125 0.3125 0  0.34375 0.3125 0  0.375 0.3125 0  0.40625 0.3125 0  0.4375 0.3125 0  0.46875 0.3125 0  0.5 0.3125 0  0.53125 0.3125 0  0.5625 0.3125 0  0.59375 0.3125 0  0.625 0.3125 0  0.65625 0.3125 0  0.6875 0.3125 0  0.71875 0.3125 0  0.75 0.3125 0  0.78125 0.3125 0  0.8125 0.3125 0  0.84375 0.3125 0  0.875 0.3125 0  0.90625 0.3125 0  0.9375 0.3125 0  0.96875 0.3125 0  1 0.3125 0  0 0.34375 0  0.03125 0.34375 0  0.0625 0.34375 0  0.09375 0.34375 0  0.125 0.34375 0  0.15625 0.34375 0  0.1875 0.34375 0  0.21875 0.34375 0  0.25 0.34375 0  0.28125 0.34375 0  0.3125 0.34375 0  0.34375 0.34375 0  0.375 0.34375 0  0.40625 0.34375 0  0.4375 0.34375 0  0.46875 0.34375 0  0.5 0.34375 0  0.53125 0.34375 0  0.5625 0.34375 0  0.59375 0.34375 0  0.625 0.34375 0  0.65625 0.34375 0  0.6875 0.34375 0  0.71875 0.34375 0  0.75 0.34375 0  0.78125 0.34375 0  0.8125 0.34375 0  0.84375 0.34375 0  0.875 0.34375 0  0.90625 0.34375 0  0.9375 0.34375 0  0.96875 0.34375 0  1 0.34375 0  0 0.375 0  0.03125 0.375 0  0.0625 0.375 0  0.09375 0.375 0  0.125 0.375 0  0.15625 0.375 0  0.1875 0.375 0  0.21875 0.375 0  0.25 0.375 0  0.28125 0.375 0  0.3125 0.375 0  0.34375 0.375 0  0.375 0.375 0  0.40625 0.375 0  0.4375 0.375 0  0.46875 0.375 0  0.5 0.375 0  0.53125 0.375 0  0.5625 0.375 0  0.59375 0.375 0  0.625 0.375 0  0.65625 0.375 0  0.6875 0.375 0  0.71875 0.375 0  0.75 0.375 0  0.78125 0.375 0  0.8125 0.375 0  0.84375 0.375 0  0.875 0.375 0  0.90625 0.375 0  0.9375 0.375 0  0.96875 0.375 0  1 0.375 0  0 0.40625 0  0.03125 0.40625 0  0.0625 0.40625 0  0.09375 0.40625 0  0.125 0.40625 0  0.15625 0.40625 0  0.1875 0.40625 0  0.21875 0.40625 0  0.25 0.40625 0  0.28125 0.40625 0  0.3125 0.40625 0  0.34375 0.40625 0  0.375 0.40625 0  0.40625 0.40625 0  0.4375 0.40625 0  0.46875 0.40625 0  0.5 0.40625 0  0.53125 0.40625 0  0.5625 0.40625 0  0.59375 0.40625 0  0.625 0.40625 0  0.65625 0.40625 0  0.6875 0.40625 0  0.71875 0.40625 0  0.75 0.40625 0  0.78125 0.40625 0  0.8125 0.40625 0  0.84375 0.40625 0  0.875 0.40625 0  0.90625 0.40625 0  0.9375 0.40625 0  0.96875 0.40625 0  1 0.40625 0  0 0.4375 0  0.03125 0.4375 0  0.0625 0.4375 0  0.09375 0.4375 0  0.125 0.4375 0  0.15625 0.4375 0  0.1875 0.4375 0  0.21875 0.4375 0  0.25 0.4375 0  0.28125 0.4375 0  0.3125 0.4375 0  0.34375 0.4375 0  0.375 0.4375 0  0.40625 0.4375 0  0.4375 0.4375 0  0.46875 0.4375 0  0.5 0.4375 0  0.53125 0.4375 0  0.5625 0.4375 0  0.59375 0.4375 0  0.625 0.4375 0  0.65625 0.4375 0  0.6875 0.4375 0  0.71875 0.4375 0  0.75 0.4375 0  0.78125 0.4375 0  0.8125 0.4375 0  0.84375 0.4375 0  0.875 0.4375 0  0.90625 0.4375 0  0.9375 0.4375 0  0.96875 0.4375 0  1 0.4375 0  0 0.46875 0  0.03125 0.46875 0  0.0625 0.46875 0  0.09375 0.46875 0  0.125 0.46875 0  0.15625 0.46875 0  0.1875 0.46875 0  0.21875 0.46875 0  0.25 0.46875 0  0.28125 0.46875 0  0.3125 0.46875 0  0.34375 0.46875 0  0.375 0.46875 0  0.40625 0.46875 0  0.4375 0.46875 0  0.46875 0.46875 0  0.5 0.46875 0  0.53125 0.46875 0  0.5625 0.46875 0  0.59375 0.46875 0  0.625 0.46875 0  0.65625 0.46875 0  0.6875 0.46875 0  0.71875 0.46875 0  0.75 0.46875 0  0.78125 0.46875 0  0.8125 0.46875 0  0.84375 0.46875 0  0.875 0.46875 0  0.90625 0.46875 0  0.9375 0.46875 0  0.96875 0.46875 0  1 0.46875 0  0 0.5 0  0.03125 0.5 0  0.0625 0.5 0  0.09375 0.5 0  0.125 0.5 0  0.15625 0.5 0  0.1875 0.5 0  0.21875 0.5 0  0.25 0.5 0  0.28125 0.5 0  0.3125 0.5 0  0.34375 0.5 0  0.375 0.5 0  0.40625 0.5 0  0.4375 0.5 0  0.46875 0.5 0  0.5 0.5 0  0.53125 0.5 0  0.5625 0.5 0  0.59375 0.5 0  0.625 0.5 0  0.65625 0.5 0  0.6875 0.5 0  0.71875 0.5 0  0.75 0.5 0  0.78125 0.5 0  0.8125 0.5 0  0.84375 0.5 0  0.875 0.5 0  0.90625 0.5 0  0.9375 0.5 0  0.96875 0.5 0  1 0.5 0  0 0.53125 0  0.03125 0.53125 0  0.0625 0.53125 0  0.09375 0.53125 0  0.125 0.53125 0  0.15625 0.53125 0  0.1875 0.53125 0  0.21875 0.53125 0  0.25 0.53125 0  0.28125 0.53125 0  0.3125 0.53125 0  0.34375 0.53125 0  0.375 0.53125 0  0.40625 0.53125 0  0.4375 0.53125 0  0.46875 0.53125 0  0.5 0.53125 0  0.53125 0.53125 0  0.5625 0.53125 0  0.59375 0.53125 0  0.625 0.53125 0  0.65625 0.53125 0  0.6875 0.53125 0  0.71875 0.53125 0  0.75 0.53125 0  0.78125 0.531
[...]
<PointData  Scalars="phi"> 
<DataArray  type="Float64"  Name="phi"  format="ascii">0.0000000000000000e+00  0.0000000000000000e+00  0.0000000000000000e+00  0.0000000000000000e+00  0.0000000000000000e+00  0.0000000000000000e+00  0.0000000000000000e+00  0.0000000000000000e+00  0.0000000000000000e+00  0.0000000000000000e+00  0.0000000000000000e+00  0.0000000000000000e+00  0.0000000000000000e+00  0.0000000000000000e+00  0.0000000000000000e+00  0.0000000000000000e+00  0.0000000000000000e+00  0.0000000000000000e+00  0.0000000000000000e+00  0.0000000000000000e+00  0.0000000000000000e+00  0.0000000000000000e+00  0.0000000000000000e+00  0.0000000000000000e+00  0.0000000000000000e+00  0.0000000000000000e+00  0.0000000000000000e+00  0.0000000000000000e+00  0.0000000000000000e+00  0.0000000000000000e+00  0.0000000000000000e+00  0.0000000000000000e+00  0.0000000000000000e+00  0.0000000000000000e+00  -6.2999715034607177e-21  4.6847503276685578e-13  1.8459055668827155e-12  4.5268593329262078e-12  8.8412798206907153e-12  1.5038080448257834e-11  2.3271877152572477e-11  3.3593472730234849e-11  4.5944524313621263e-11  6.0156647620853113e-11  7.5955031896796646e-11  9.2966460034313457e-11  1.1073145431197338e-10  1.2872010542933297e-10  1.4635099697939704e-10  1.6301251461531795e-10  1.7808573361436520e-10  1.9096801399099453e-10  2.0109640128548062e-10  2.0796993493042543e-10  2.1117000466863147e-10  2.1037796761392740e-10  2.0538934185328429e-10  1.9612402379480631e-10  1.8263213231367990e-10  1.6509526063332012e-10  1.4382311825856632e-10  1.1924578389596637e-10  9.1902117801699263e-11  6.2425474099549839e-11  3.1529322853786550e-11  0.0000000000000000e+00  0.0000000000000000e+00  -4.6847505782517647e-13  -2.4923720817607333e-20  2.2853239254613919e-12  7.1768414156924405e-12  1.5335585835080898e-11  2.7261400498835694e-11  4.3266399828614781e-11  6.3455931799387399e-11  8.7717880891279148e-11  1.1572081002700341e-10  1.4692108691021167e-10  1.8057878483775525e-10  2.1578180232075815e-10  2.5147732212390926e-10  2.8650944063258298e-10  3.1966155372293980e-10  3.4970189488291569e-10  3.7543049254866225e-10  3.9572575151248670e-10  4.0958887035794495e-10  4.1618438314548334e-10  4.1487525644813887e-10  4.0525117744774291e-10  3.8714892836778270e-10  3.6066404906997920e-10  3.2615333528728492e-10  2.8422809922956607e-10  2.3573853343855405e-10  1.8174998272617772e-10  1.2351247443111975e-10  6.2425474099550020e-11  0.0000000000000000e+00  0.0000000000000000e+00  -1.8459056041457913e-12  -2.2853239995977528e-12  -5.5135506121731132e-20  6.1944807416271560e-12  1.7291957658133034e-11  3.4046436275632405e-11  5.6932363344423691e-11  8.6116110595001405e-11  1.2143989423471666e-10  1.6241886314841020e-10  2.0825156938950671e-10  2.5784350846540412e-10  3.0984290362933531e-10  3.6268742711432930e-10  4.1466012019980301e-10  4.6395240962670003e-10  5.0873183415342031e-10  5.4721190292816964e-10  5.7772141434263258e-10  5.9877057388244132e-10  6.0911136208654452e-10  6.0778981512631361e-10  5.9418818316387573e-10  5.6805531479526506e-10  5.2952406617196858e-10  4.7911503560928863e-10  4.1772646220197569e-10  3.4661068204930676e-10  2.6733808293699219e-10  1.8174998272617862e-10  9.1902117801699974e-11  0.0000000000000000e+00  0.0000000000000000e+00  -4.5268593820265827e-12  -7.1768415133884211e-12  -6.1944808869508310e-12  -9.5764403201158356e-20  1.2735351497049711e-11  3.3023944361650622e-11  6.1509061401636471e-11  9.8427014499158584e-11  1.4358568621938910e-10  1.9636045601732035e-10  2.5570779042748686e-10  3.2019608571316759e-10  3.8805267597190387e-10  4.5722528565128171e-10  5.2545563714285052e-10  5.9036244342957098e-10  6.4953064118442750e-10  7.0060346574601782e-10  7.4137384593339428e-10  7.6987160864177542e-10  7.8444313036651444e-10  7.8382034988601048e-10  7.6717645302940200e-10  7.3416604196684741e-10  6.8494818895753447e-10  6.2019142553677729e-10  5.4106040663619172e-10  4.4918468389332998e-10  3.4661068204930919e-10  2.3573853343855684e-10  1.1924578389596810e-10  0.0000000000000000e+00  0.0000000000000000e+00  -8.8412798811489553e-12  -1.5335585955383400e-11  -1.7291957837093194e-11  -1.2735351732919331e-11  -1.4524283421913143e-19  2.2189594300879236e-11  5.4653295059900370e-11  9.7708268462574042e-11  1.5114218616834257e-10  2.1420787209056944e-10  2.8563973817023682e-10  3.6369150396052188e-10  4.4619386378322382e-10  5.3062998442847837e-10  6.1422601614325293e-10  6.9405320701660978e-10  7.6713774871493098e-10  8.3057416774619486e-10  8.8163792325763464e-10  9.1789288586580597e-10  9.3728955186634698e-10  9.3825018667018047e-10  9.1973757759970399e-10  8.8130469064249936e-10  8.2312324457655242e-10  7.4599001052025449e-10  6.5131048243596270e-10  5.4106040663619669e-10  4.1772646220198241e-10  2.8422809922957202e-10  1.4382311825856974e-10  0.0000000000000000e+00  0.0000000000000000e+00  -1.5038080519486376e-11  -2.7261400640576019e-11  -3.4046436486491458e-11  -3.3023944639572303e-11  -2.2189594643164015e-11  -2.0166534164440944e-19  3.4549702641172439e-11  8.1869878195291402e-11  1.4174433107630583e-10  2.1332355448624586e-10  2.9514369575557437e-10  3.8517064785279560e-10  4.8086769630066881e-10  5.7928423063916795e-10  6.7716220386338494e-10  7.7105632406442635e-10  8.5746341685412314e-10  9.3295602619651740e-10  9.9431513942721527e-10  1.0386569366767579e-09  1.0635486752361664e-09  1.0671092176622760e-09  1.0480902833668551e-09  1.0059352250115808e-09  9.4081297506418063e-10  8.5362574086234895e-10  7.4599001052026318e-10  6.2019142553679022e-10  4.7911503560930186e-10  3.2615333528729552e-10  1.6509526063332593e-10  0.0000000000000000e+00  0.0000000000000000e+00  -2.3271877233880903e-11  -4.3266399990419315e-11  -5.6932363585138781e-11  -6.1509061718918604e-11  -5.4653295450670592e-11  -3.4549703101645908e-11  -2.6286120637839161e-19  4.9512472630354715e-11  1.1378554656114953e-10  1.9188995850970278e-10  2.8219049745367729e-10  3.8239589282614428e-10  4.8963565808927615e-10  6.0056105074663728e-10  7.1146636650462609e-10  8.1842598589212870e-10  9.1744196737377277e-10  1.0045965560194303e-09  1.0762037676267670e-09  1.1289542230369029e-09  1.1600476458077287e-09  1.1673078893504532e-09  1.1492760096993492e-09  1.1052777221545943e-09  1.0354625421423945e-09  9.4081297506419407e-10  8.2312324457657372e-10  6.8494818895755845e-10  5.2952406617199071e-10  3.6066404906999600e-10  1.8263213231368892e-10  0.0000000000000000e+00  0.0000000000000000e+00  -3.3593472820836316e-11  -6.3455931979690490e-11  -8.6116110863243748e-11  -9.8427014852732310e-11  -9.7708268898050991e-11  -8.1869878708456121e-11  -4.9512473216245141e-11  -3.2647761121672996e-19  6.6498089952442245e-11  1.4899696183229538e-10  2.4571934587239041e-10  3.5415058977795909e-10  4.7112382354672101e-10  5.9293208197479972e-10  7.1546317471231362e-10  8.3435220176316308e-10  9.4514591504088122e-10  1.0434726513022391e-09  1.1252113269198416e-09  1.1866529997084411e-09  1.2246487669566880e-09  1.2367382718916855e-09  1.2212538137204817e-09  1.1773959713109950e-09  1.1052777221546137e-09  1.0059352250116129e-09  8.8130469064253762e-10  7.3416604196688588e-10  5.6805531479529866e-10  3.8714892836780741e-10  1.9612402379481936e-10  0.0000000000000000e+00  0.0000000000000000e+00  -4.5944524412639959e-11  -8.7717881088338010e-11  -1.2143989452789374e-10  -1.4358568660583770e-10  -1.5114218664431876e-10  -1.4174433163720462e-10  -1.1378554720154934e-10  -6.6498090666157200e-11  -3.9006984196026608e-19  8.4693314478940748e-11  1.8569344164422529e-10  3.0029849548490765e-10  4.2508564944952840e-10  5.5603322830439049e-10  6.8866776524488437e-10  8.1823045189633928e-10  9.3985664527050248e-10  1.0487615743346683e-09  1.1404251301939680e-09  1.2107686380778087e-09  1.2563167959537276e-09  1.2743385127686847e-09  1.2629611680595251e-09  1.2212538137205078e-09  1.1492760096993939e-09  1.0480902833669107e-09  9.1973757759976324e-10  7.6717645302945825e-10  5.9418818316392319e-10  4.0525117744777714e-10  2.0538934185330218e-10  0.0000000000000000e+00  0.0000000000000000e+00  -6.0156647727332635e-11  -1.1572081023891476e-10  -1.6241886346369061e-10  -1.9636045643291199e-10  -2.1420787260244905e-10  -2.1332355508946360e-10  -1.9188995919843019e-10  -1.4899696259988156e-10  -8.4693315317976707e-11  -4.5119507275495975e-19  1.0311515099828862e-10  2.2180074831194461e-10  3.5242072057920615e-10  4.9068509435857536e-10  6.3180773528435466e-10  7.7068506681068532e-10  9.0208895564445262e-10  1.0208663905576629e-09  1.1221383009676037e-09  1.2014898748489549e-09  1.2551450418345249e-09  1.2801183751405663e-09  1.2743385127687180e-09  1.2367382718917440e-09  1.1673078893505287e-09  1.0671092176623598e-09  9.3825018667026443e-10  7.8382034988608751e-10  6.0778981512637731e-10  4.1487525644818411e-10  2.1037796761395087e-10  0.0000000000000000e+00  0.0000000000000000e+00  -7.5955032009709139e-11  -1.4692108713493002e-10  -2.0825156972384730e-10  -2.5570779086821044e-10  -2.8563973871307989e-10  -2.9514369639529011e-10  -2.8219049818408693e-10  -2.4571934668644232e-10  -1.8569344253406365e-10  -1.0311515195532896e-10  -5.0750613465238349e-19  1.2068962705040743e-10  2.5514864144499523e-10  3.9886735191063416e-10  5.4679829326116137e-10  6.9354543429226115e-10  8.3356854908519170e-10  9.6139493356843086e-10  1.0718303501313618e-09  1.1601610948203029e-09  1.2223394043748329e-09  1.2551450418345654e-09  1.2563167959538006e-09  1.2246487669567845e-09  1.1600476458078396e-09  1.0635486752362822e-09  9.3728955186645927e-10  7.8444313036661474e-10  6.0911136208662621e-10  4.1618438314554089e-10  2.1117000466866120e-10  0.0000000000000000e+00  0.0000000000000000e+00  -9.2966460152569549e-11  -1.8057878507311251e-10  -2.5784350881557940e-10  -3.2019608617477149e-10  -3.6369150452909181e-10  -3.8517064852283888e-10  -3.8239589359119122e-10  -3.5415059063062586e-10  -3.0029849641696727e-10  -2.2180074931440671e-10  -1.2068962811360505e-10  -5.5684144947985692e-19  1.3633899688240490e-10  2.8364796796385170e-10  4.3667149169819727e-10  5.8977594698118663e-10  7.3716337078211828e-10  8.7309316374779203e-10  9.9210314086570618e-10  1.0892214347397884e-09  1.1601610948203505e-09  1.2014898748490421e-09  1.2107686380779270e-09  1.1866529997085803e-09  1.1289542230370533e-09  1.0386569366769092e-09  9.1789288586594886e-10  7.6987160864190115e-10  5.9877057388254245e-10  4.0958887035801567e-10  2.0796993493046180e-10  0.0000000000000000e+00  0.0000000000000000e+00  -1.1073145443443263e-10  -2.1578180256448462e-10  -3.0984290399196829e-10  -3.8805267644993677e-10  -4.4619386437203807e-10  -4.8086769699457873e-10  -4.8963565888158406e-10  -4.7112382442978181e-10  -4.2508565041482357e-10  -3.5242072161742623e-10  -2.5514864254612958e-10  -1.3633899803583858e-10  -5.9730801603034716e-19  1.4906996230771282e-10  3.0546223369376557e-10  4.6336237984192490e-10  6.1677145020793457e-10  7.5973552909976026e-10  8.8657477371358488e-10  9.9210314086575995e-10  1.0718303501314623e-09  1.1221383009677425e-09  1.1404251301941353e-09  1.1252113269200269e-09  1.0762037676269593e-09  9.9431513942740428e-10  8.8163792325781001e-10  7.4137384593354659e-10  5.7772141434275418e-10  3.9572575151257128e-10  2.0109640128552400e-10  0.0000000000000000e+00  0.0000000000000000e+00  -1.2872010555481482e-10  -2.5147732237365546e-10  -3.6268742748592426e-10  -4.5722528614113543e-10  -5.3062998503186102e-10  -5.7928423135025594e-10  -6.0056105155856933e-10  -5.9293208287974328e-10  -5.5603322929361765e-10  -4.9068509542254749e-10  -3.9886735303909354e-10  -2.8364796914592087e-10  -1.4906996353199965e-10  -6.2735382292202270e-19  1.5805540749371693e-10  3.1915905950262737e-10  4.7716957598882182e-10  6.2597658080949323e-10  7.5973552909981899e-10  8.7309316374790381e-10  9.6139493356858803e-10  1.0208663905578562e-09  1.0487615743348873e-09  1.0434726513024723e-09  1.0045965560196665e-09  9.3295602619674529e-10  8.3057416774640352e-10  7.0060346574619753e-10  5.4721190292831201e-10  3.7543049254876089e-10  1.9096801399104499e-10  0.0000000000000000e+00  0.0000000000000000e+00  -1.4635099710669228e-10  -2.8650944088594204e-10  -4.1466012057677899e-10  -5.2545563763980461e-10  -6.1422601675538975e-10  -6.7716220458479872e-10  -7.1146636732835839e-10  -7.1546317563042010e-10  -6.8866776624851212e-10  -6.3180773636382733e-10  -5.4679829440607322e-10  -4.3667149289751326e-10  -3.0546223493592812e-10  -1.5805540876675756e-10  -6.4582728162276189e-19  1.6270269251847799e-10  3.2382863120855270e-10  4.7716957598888417e-10  6.1677145020805503e-10  7.3716337078229033e-10  8.3356854908540708e-10  9.0208895564470150e-10  9.3985664527077359e-10  9.4514591504116287e-10  9.1744196737405267e-10  8.5746341685438959e-10  7.6713774871517262e-10  6.4953064118463409e-10  5.0873183415358327e-10  3.4970189488302819e-10  1.7808573361442261e-10  0.0000000000000000e+00  0.0000000000000000e+00  -1.6301251474320023e-10  -3.1966155397747103e-10  -4.6395241000542545e-10  -5.9036244392883807e-10  -6.9405320763160368e-10  -7.7105632478921638e-10  -8.1842598671972611e-10  -8.3435220268558847e-10  -8.1823045290469964e-10  -7.7068506789526014e-10  -6.9354543544259682e-10  -5.8977594818619687e-10  -4.6336238108999807e-10  -3.1915906078173868e-10  -1.6270269381630514e-10  -6.5202118052648745e-19  1.6270269251854212e-10  3.1915905950275321e-10  4.6336237984210750e-10  5.8977594698141907e-10  6.9354543429253443e-10  7.7068506681098890e-10  8.1823045189666157e-10  8.3435220176349168e-10  8.1842598589245099e-10  7.7105632406472993e-10  6.9405320701688296e-10  5.9036244342980332e-10  4.6395240962688252e-10  3.1966155372306543e-10  1.6301251461538200e-10  0.0000000000000000e+00  0.0000000000000000e+00  -1.7808573374160295e-10  -3.4970189513616784e-10  -5.0873183453024782e-10  -6.4953064168119929e-10  -7.6713774932685914e-10  -8.5746341757530934e-10  -9.1744196819726509e-10  -9.4514591595874192e-10  -9.3985664627388414e-10  -9.0208895672368468e-10  -8.3356855022987287e-10  -7.3716337198121791e-10  -6.1677145144989880e-10  -4.7716957726168518e-10  -3.2382863250005358e-10  -1.6270269381624103e-10  -6.4569966897784390e-19  1.5805540749390501e-10  3.0546223369400866e-10  4.3667149169848787e-10  5.4679829326148987e-10  6.3180773528471004e-10  6.8866776524525464e-10  7.1546317471268596e-10  7.1146636650498747e-10  6.7716220386372264e-10  6.1422601614355506e-10  5.2545563714310622e-10  4.1466012020000324e-10  2.8650944063272060e-10  1.4635099697946709e-10  0.0000000000000000e+00  0.0000000000000000e+00  -1.9096801411636282e-10  -3.7543049279819710e-10  -5.4721190329947137e-10  -7.0060346623551178e-10  -8.3057416834916600e-10  -9.3295602690715633e-10  -1.0045965568308891e-09  -1.0434726522066980e-09  -1.0487615753234110e-09  -1.0208663916211609e-09  -9.6139493469643618e-10  -8.7309316492943546e-10  -7.5973553032365700e-10  -6.2597658206385245e-10  -4.7716957726162293e-10  -3.1915906078161290e-10  -1.5805540876656950e-10  -6.2710711484049913e-19  1.4906996230801228e-10  2.8364796796419581e-10  3.9886735191101316e-10  4.9068509435897779e-10  5.5603322830480387e-10  5.9293208197521104e-10  6.0056105074703329e-10  5.7928423063953564e-10  5.3062998442880562e-10  4.5722528565155778e-10  3.6268742711454488e-10  2.5147732212405717e-10  1.2872010542940817e-10  0.0000000000000000e+00  0.0000000000000000e+00  -2.0109640140777287e-10  -3.9572575175590274e-10  -5.7772141470483501e-10  -7.4137384641089908e-10  -8.8163792384584547e-10  -9.9431514012046707e-10  -1.0762037684183820e-09  -1.1252113278021929e-09  -1.1404251311585541e-09  -1.1221383020051306e-09  -1.0718303512318327e-09  -9.9210314201851823e-10  -8.8657477490763189e-10  -7.5973553032359827e-10  -6.1677145144977855e-10  -4.6336238108981552e-10  -3.0546223493568508e-10  -1.4906996353170021e-10  -5.9695852013907428e-19  1.3633899688279606e-10  2.5514864144541787e-10  3.5242072057964864e-10  4.2508564944997808e-10  4.7112382354716469e-10  4.8963565808970059e-10  4.8086769630106089e-10  4.4619386378357155e-10  3.8805267597219628e-10  3.0984290362956309e-10  2.1578180232091418e-10  1.1073145431205267e-10  0.0000000000000000e+00  0.0000000000000000e+00  -2.0796993504846511e-10  -4.0958887059290033e-10  -5.9877057423205976e-10  -7.6987160910269710e-10  -9.1789288643359680e-10  -1.0386569373459524e-09  -1.1289542238010569e-09  -1.1866530005601944e-09  -1.2107686390089562e-09  -1.2014898758505258e-09  -1.1601610958826485e-09  -1.0892214358526741e-09  -9.9210314201846467e-10  -8.7309316492932379e-10  -7.3716337198104596e-10  -5.8977594818596454e-10  -4.3667149289722276e-10  -2.8364796914557671e-10  -1.3633899803544740e-10  -5.5641190551295325e-19  1.2068962705086504e-10  2.2180074831241856e-10  3.0029849548538535e-10  3.5415058977842732e-10  3.8239589282658977e-10  3.8517064785320557e-10  3.6369150396088418e-10  3.2019608571347148e-10  2.5784350846564049e-10  1.8057878483791693e-10  9.2966460034395554e-11  0.0000000000000000e+00  0.0000000000000000e+00  -2.1117000478128339e-10  -4.1618438336971841e-10  -6.0911136242021646e-10  -7.8444313080641984e-10  -9.3728955240825678e-10  -1.0635486758748666e-09  -1.1600476465370712e-09  -1.2246487677696493e-09  -1.2563167968424782e-09  -1.2551450427905041e-09  -1.2223394053888316e-09  -1.1601610958826012e-09  -1.0718303512317322e-09  -9.6139493469627902e-10  -8.3356855022965760e-10  -6.9354543544232365e-10  -5.4679829440574473e-10  -3.9886735303871459e-10  -2.5514864254570694e-10  -1.2068962811314744e-10  -5.0702386921876225e-19  1.0311515099878394e-10  1.8569344164472119e-10  2.4571934587287385e-10  2.8219049745413540e-10  2.9514369575599443e-10  2.8563973817060709e-10  2.5570779042779679e-10  2.0825156938974737e-10  1.4692108691037615e-10  7.5955031896880088e-11  0.0000000000000000e+00  0.0000000000000000e+00  -2.1037796772010859e-10  -4.1487525665949799e-10  -6.0778981544083126e-10  -7.8382035030067033e-10  -9.3825018718099883e-10  -1.0671092182643407e-09  -1.1673078900379708e-09  -1.2367382726580369e-09  -1.2743385136064911e-09  -1.2801183760417585e-09  -1.2551450427904636e-09  -1.2014898758504388e-09  -1.1221383020049920e-09  -1.0208663916209680e-09  -9.0208895672343591e-10  -7.7068506789495657e-10  -6.3180773636347185e-10  -4.9068509542214507e-10  -3.5242072161698368e-10  -2.2180074931393273e-10  -1.0311515195483365e-10  -4.5068973723197178e-19  8.4693314479443971e-11  1.4899696183278391e-10  1.9188995851016404e-10  2.1332355448666764e-10  2.1420787209094038e-10  1.9636045601763031e-10  1.6241886314865060e-10  1.1572081002716754e-10  6.0156647620936361e-11  0.0000000000000000e+00  0.0000000000000000e+00  -2.0538934195197461e-10  -4.0525117764419526e-10  -5.9418818345621687e-10  -7.6717645341483156e-10  -9.1973757807452190e-10  -1.0480902839264978e-09  -1.1492760103384329e-09  -1.2212538144328561e-09  -1.2629611688383319e-09  -1.2743385136064578e-09  -1.2563167968424054e-09  -1.2107686390088384e-09  -1.1404251311583872e-09  -1.0487615753231924e-09  -9.3985664627361303e-10  -8.1823045290437735e-10  -6.8866776624814175e-10  -5.5603322929320426e-10  -4.2508565041437379e-10  -3.0029849641648957e-10  -1.8569344253356778e-10  -8.4693315317473497e-11  -3.8957090951542542e-19  6.6498089952924892e-11  1.1378554656160393e-10  1.4174433107672035e-10  1.5114218616870647e-10  1.4358568621969273e-10  1.2143989423495194e-10  8.7717880891439673e-11  4.5944524313702657e-11  0.0000000000000000e+00  0.0000000000000000e+00  -1.9612402388505810e-10  -3.8714892854744188e-10  -5.6805531506262214e-10  -7.3416604231934485e-10  -8.8130469107675595e-10  -1.0059352255234249e-09  -1.1052777227391043e-09  -1.1773959719625467e-09  -1.2212538144328300e-09  -1.2367382726579786e-09  -1.2246487677695530e-09  -1.1866530005600554e-09  -1.1252113278020080e-09  -1.0434726522064649e-09  -9.4514591595846026e-10  -8.3435220268525988e-10  -7.1546317563004776e-10  -5.9293208287933196e-10  -4.7112382442933802e-10  -3.5415059063015757e-10  -2.4571934668595884e-10  -1.4899696259939306e-10  -6.6498090665674540e-11  -3.2601205978626872e-19  4.9512472