<?xml version="1.0"?>
<VTKFile type="UnstructuredGrid"  version="0.1"  >
<UnstructuredGrid>
<Piece  NumberOfPoints="1089" NumberOfCells="2048">
<Points>
<DataArray  type="Float64"  NumberOfComponents="3"  format="ascii">0 0 0  0.03125 0 0  0.0625 0 0  0.09375 0 0  0.125 0 0  0.15625 0 0  0.1875 0 0  0.21875 0 0  0.25 0 0  0.28125 0 0  0.3125 0 0  0.34375 0 0  0.375 0 0  0.40625 0 0  0.4375 0 0  0.46875 0 0  0.5 0 0  0.53125 0 0  0.5625 0 0  0.59375 0 0  0.625 0 0  0.65625 0 0  0.6875 0 0  0.71875 0 0  0.75 0 0  0.78125 0 0  0.8125 0 0  0.84375 0 0  0.875 0 0  0.90625 0 0  0.9375 0 0  0.96875 0 0  1 0 0  0 0.03125 0  0.03125 0.03125 0  0.0625 0.03125 0  0.09375 0.03125 0  0.125 0.03125 0  0.15625 0.03125 0  0.1875 0.03125 0  0.21875 0.03125 0  0.25 0.03125 0  0.28125 0.03125 0  0.3125 0.03125 0  0.34375 0.03125 0  0.375 0.03125 0  0.40625 0.03125 0  0.4375 0.03125 0  0.46875 0.03125 0  0.5 0.03125 0  0.53125 0.03125 0  0.5625 0.03125 0  0.59375 0.03125 0  0.625 0.03125 0  0.65625 0.03125 0  0.6875 0.03125 0  0.71875 0.03125 0  0.75 0.03125 0  0.78125 0.03125 0  0.8125 0.03125 0  0.84375 0.03125 0  0.875 0.03125 0  0.90625 0.03125 0  0.9375 0.03125 0  0.96875 0.03125 0  1 0.03125 0  0 0.0625 0  0.03125 0.0625 0  0.0625 0.0625 0  0.09375 0.0625 0  0.125 0.0625 0  0.15625 0.0625 0  0.1875 0.0625 0  0.21875 0.0625 0  0.25 0.0625 0  0.28125 0.0625 0  0.3125 0.0625 0  0.34375 0.0625 0  0.375 0.0625 0  0.40625 0.0625 0  0.4375 0.0625 0  0.46875 0.0625 0  0.5 0.0625 0  0.53125 0.0625 0  0.5625 0.0625 0  0.59375 0.0625 0  0.625 0.0625 0  0.65625 0.0625 0  0.6875 0.0625 0  0.71875 0.0625 0  0.75 0.0625 0  0.78125 0.0625 0  0.8125 0.0625 0  0.84375 0.0625 0  0.875 0.0625 0  0.90625 0.0625 0  0.9375 0.0625 0  0.96875 0.0625 0  1 0.0625 0  0 0.09375 0  0.03125 0.09375 0  0.0625 0.09375 0  0.09375 0.09375 0  0.125 0.09375 0  0.15625 0.09375 0  0.1875 0.09375 0  0.21875 0.09375 0  0.25 0.09375 0  0.28125 0.09375 0  0.3125 0.09375 0  0.34375 0.09375 0  0.375 0.09375 0  0.40625 0.09375 0  0.4375 0.09375 0  0.46875 0.09375 0  0.5 0.09375 0  0.53125 0.09375 0  0.5625 0.09375 0  0.59375 0.09375 0  0.625 0.09375 0  0.65625 0.09375 0  0.6875 0.09375 0  0.71875 0.09375 0  0.75 0.09375 0  0.78125 0.09375 0  0.8125 0.09375 0  0.84375 0.09375 0  0.875 0.09375 0  0.90625 0.09375 0  0.9375 0.09375 0  0.96875 0.09375 0  1 0.09375 0  0 0.125 0  0.03125 0.125 0  0.0625 0.125 0  0.09375 0.125 0  0.125 0.125 0  0.15625 0.125 0  0.1875 0.125 0  0.21875 0.125 0  0.25 0.125 0  0.28125 0.125 0  0.3125 0.125 0  0.34375 0.125 0  0.375 0.125 0  0.40625 0.125 0  0.4375 0.125 0  0.46875 0.125 0  0.5 0.125 0  0.53125 0.125 0  0.5625 0.125 0  0.59375 0.125 0  0.625 0.125 0  0.65625 0.125 0  0.6875 0.125 0  0.71875 0.125 0  0.75 0.125 0  0.78125 0.125 0  0.8125 0.125 0  0.84375 0.125 0  0.875 0.125 0  0.90625 0.125 0  0.9375 0.125 0  0.96875 0.125 0  1 0.125 0  0 0.15625 0  0.03125 0.15625 0  0.0625 0.15625 0  0.09375 0.15625 0  0.125 0.15625 0  0.15625 0.15625 0  0.1875 0.15625 0  0.21875 0.15625 0  0.25 0.15625 0  0.28125 0.15625 0  0.3125 0.15625 0  0.34375 0.15625 0  0.375 0.15625 0  0.40625 0.15625 0  0.4375 0.15625 0  0.46875 0.15625 0  0.5 0.15625 0  0.53125 0.15625 0  0.5625 0.15625 0  0.59375 0.15625 0  0.625 0.15625 0  0.65625 0.15625 0  0.6875 0.15625 0  0.71875 0.15625 0  0.75 0.15625 0  0.78125 0.15625 0  0.8125 0.15625 0  0.84375 0.15625 0  0.875 0.15625 0  0.90625 0.15625 0  0.9375 0.15625 0  0.96875 0.15625 0  1 0.15625 0  0 0.1875 0  0.03125 0.1875 0  0.0625 0.1875 0  0.09375 0.1875 0  0.125 0.1875 0  0.15625 0.1875 0  0.1875 0.1875 0  0.21875 0.1875 0  0.25 0.1875 0  0.28125 0.1875 0  0.3125 0.1875 0  0.34375 0.1875 0  0.375 0.1875 0  0.40625 0.1875 0  0.4375 0.1875 0  0.46875 0.1875 0  0.5 0.1875 0  0.53125 0.1875 0  0.5625 0.1875 0  0.59375 0.1875 0  0.625 0.1875 0  0.65625 0.1875 0  0.6875 0.1875 0  0.71875 0.1875 0  0.75 0.1875 0  0.78125 0.1875 0  0.8125 0.1875 0  0.84375 0.1875 0  0.875 0.1875 0  0.90625 0.1875 0  0.9375 0.1875 0  0.96875 0.1875 0  1 0.1875 0  0 0.21875 0  0.03125 0.21875 0  0.0625 0.21875 0  0.09375 0.21875 0  0.125 0.21875 0  0.15625 0.21875 0  0.1875 0.21875 0  0.21875 0.21875 0  0.25 0.21875 0  0.28125 0.21875 0  0.3125 0.21875 0  0.34375 0.21875 0  0.375 0.21875 0  0.40625 0.21875 0  0.4375 0.21875 0  0.46875 0.21875 0  0.5 0.21875 0  0.53125 0.21875 0  0.5625 0.21875 0  0.59375 0.21875 0  0.625 0.21875 0  0.65625 0.21875 0  0.6875 0.21875 0  0.71875 0.21875 0  0.75 0.21875 0  0.78125 0.21875 0  0.8125 0.21875 0  0.84375 0.21875 0  0.875 0.21875 0  0.90625 0.21875 0  0.9375 0.21875 0  0.96875 0.21875 0  1 0.21875 0  0 0.25 0  0.03125 0.25 0  0.0625 0.25 0  0.09375 0.25 0  0.125 0.25 0  0.15625 0.25 0  0.1875 0.25 0  0.21875 0.25 0  0.25 0.25 0  0.28125 0.25 0  0.3125 0.25 0  0.34375 0.25 0  0.375 0.25 0  0.40625 0.25 0  0.4375 0.25 0  0.46875 0.25 0  0.5 0.25 0  0.53125 0.25 0  0.5625 0.25 0  0.59375 0.25 0  0.625 0.25 0  0.65625 0.25 0  0.6875 0.25 0  0.71875 0.25 0  0.75 0.25 0  0.78125 0.25 0  0.8125 0.25 0  0.84375 0.25 0  0.875 0.25 0  0.90625 0.25 0  0.9375 0.25 0  0.96875 0.25 0  1 0.25 0  0 0.28125 0  0.03125 0.28125 0  0.0625 0.28125 0  0.09375 0.28125 0  0.125 0.28125 0  0.15625 0.28125 0  0.1875 0.28125 0  0.21875 0.28125 0  0.25 0.28125 0  0.28125 0.28125 0  0.3125 0.28125 0  0.34375 0.28125 0  0.375 0.28125 0  0.40625 0.28125 0  0.4375 0.28125 0  0.46875 0.28125 0  0.5 0.28125 0  0.53125 0.28125 0  0.5625 0.28125 0  0.59375 0.28125 0  0.625 0.28125 0  0.65625 0.28125 0  0.6875 0.28125 0  0.71875 0.28125 0  0.75 0.28125 0  0.78125 0.28125 0  0.8125 0.28125 0  0.84375 0.28125 0  0.875 0.28125 0  0.90625 0.28125 0  0.9375 0.28125 0  0.96875 0.28125 0  1 0.28125 0  0 0.3125 0  0.03125 0.3125 0  0.0625 0.3125 0  0.09375 0.3125 0  0.125 0.3125 0  0.15625 0.3125 0  0.1875 0.3125 0  0.21875 0.3125 0  0.25 0.3125 0  0.28125 0.3125 0  0.3125 0.3125 0  0.34375 0.3125 0  0.375 0.3125 0  0.40625 0.3125 0  0.4375 0.3125 0  0.46875 0.3125 0  0.5 0.3125 0  0.53125 0.3125 0  0.5625 0.3125 0  0.59375 0.3125 0  0.625 0.3125 0  0.65625 0.3125 0  0.6875 0.3125 0  0.71875 0.3125 0  0.75 0.3125 0  0.78125 0.3125 0  0.8125 0.3125 0  0.84375 0.3125 0  0.875 0.3125 0  0.90625 0.3125 0  0.9375 0.3125 0  0.96875 0.3125 0  1 0.3125 0  0 0.34375 0  0.03125 0.34375 0  0.0625 0.34375 0  0.09375 0.34375 0  0.125 0.34375 0  0.15625 0.34375 0  0.1875 0.34375 0  0.21875 0.34375 0  0.25 0.34375 0  0.28125 0.34375 0  0.3125 0.34375 0  0.34375 0.34375 0  0.375 0.34375 0  0.40625 0.34375 0  0.4375 0.34375 0  0.46875 0.34375 0  0.5 0.34375 0  0.53125 0.34375 0  0.5625 0.34375 0  0.59375 0.34375 0  0.625 0.34375 0  0.65625 0.34375 0  0.6875 0.34375 0  0.71875 0.34375 0  0.75 0.34375 0  0.78125 0.34375 0  0.8125 0.34375 0  0.84375 0.34375 0  0.875 0.34375 0  0.90625 0.34375 0  0.9375 0.34375 0  0.96875 0.34375 0  1 0.34375 0  0 0.375 0  0.03125 0.375 0  0.0625 0.375 0  0.09375 0.375 0  0.125 0.375 0  0.15625 0.375 0  0.1875 0.375 0  0.21875 0.375 0  0.25 0.375 0  0.28125 0.375 0  0.3125 0.375 0  0.34375 0.375 0  0.375 0.375 0  0.40625 0.375 0  0.4375 0.375 0  0.46875 0.375 0  0.5 0.375 0  0.53125 0.375 0  0.5625 0.375 0  0.59375 0.375 0  0.625 0.375 0  0.65625 0.375 0  0.6875 0.375 0  0.71875 0.375 0  0.75 0.375 0  0.78125 0.375 0  0.8125 0.375 0  0.84375 0.375 0  0.875 0.375 0  0.90625 0.375 0  0.9375 0.375 0  0.96875 0.375 0  1 0.375 0  0 0.40625 0  0.03125 0.40625 0  0.0625 0.40625 0  0.09375 0.40625 0  0.125 0.40625 0  0.15625 0.40625 0  0.1875 0.40625 0  0.21875 0.40625 0  0.25 0.40625 0  0.28125 0.40625 0  0.3125 0.40625 0  0.34375 0.40625 0  0.375 0.40625 0  0.40625 0.40625 0  0.4375 0.40625 0  0.46875 0.40625 0  0.5 0.40625 0  0.53125 0.40625 0  0.5625 0.40625 0  0.59375 0.40625 0  0.625 0.40625 0  0.65625 0.40625 0  0.6875 0.40625 0  0.71875 0.40625 0  0.75 0.40625 0  0.78125 0.40625 0  0.8125 0.40625 0  0.84375 0.40625 0  0.875 0.40625 0  0.90625 0.40625 0  0.9375 0.40625 0  0.96875 0.40625 0  1 0.40625 0  0 0.4375 0  0.03125 0.4375 0  0.0625 0.4375 0  0.09375 0.4375 0  0.125 0.4375 0  0.15625 0.4375 0  0.1875 0.4375 0  0.21875 0.4375 0  0.25 0.4375 0  0.28125 0.4375 0  0.3125 0.4375 0  0.34375 0.4375 0  0.375 0.4375 0  0.40625 0.4375 0  0.4375 0.4375 0  0.46875 0.4375 0  0.5 0.4375 0  0.53125 0.4375 0  0.5625 0.4375 0  0.59375 0.4375 0  0.625 0.4375 0  0.65625 0.4375 0  0.6875 0.4375 0  0.71875 0.4375 0  0.75 0.4375 0  0.78125 0.4375 0  0.8125 0.4375 0  0.84375 0.4375 0  0.875 0.4375 0  0.90625 0.4375 0  0.9375 0.4375 0  0.96875 0.4375 0  1 0.4375 0  0 0.46875 0  0.03125 0.46875 0  0.0625 0.46875 0  0.09375 0.46875 0  0.125 0.46875 0  0.15625 0.46875 0  0.1875 0.46875 0  0.21875 0.46875 0  0.25 0.46875 0  0.28125 0.46875 0  0.3125 0.46875 0  0.34375 0.46875 0  0.375 0.46875 0  0.40625 0.46875 0  0.4375 0.46875 0  0.46875 0.46875 0  0.5 0.46875 0  0.53125 0.46875 0  0.5625 0.46875 0  0.59375 0.46875 0  0.625 0.46875 0  0.65625 0.46875 0  0.6875 0.46875 0  0.71875 0.46875 0  0.75 0.46875 0  0.78125 0.46875 0  0.8125 0.46875 0  0.84375 0.46875 0  0.875 0.46875 0  0.90625 0.46875 0  0.9375 0.46875 0  0.96875 0.46875 0  1 0.46875 0  0 0.5 0  0.03125 0.5 0  0.0625 0.5 0  0.09375 0.5 0  0.125 0.5 0  0.15625 0.5 0  0.1875 0.5 0  0.21875 0.5 0  0.25 0.5 0  0.28125 0.5 0  0.3125 0.5 0  0.34375 0.5 0  0.375 0.5 0  0.40625 0.5 0  0.4375 0.5 0  0.46875 0.5 0  0.5 0.5 0  0.53125 0.5 0  0.5625 0.5 0  0.59375 0.5 0  0.625 0.5 0  0.65625 0.5 0  0.6875 0.5 0  0.71875 0.5 0  0.75 0.5 0  0.78125 0.5 0  0.8125 0.5 0  0.84375 0.5 0  0.875 0.5 0  0.90625 0.5 0  0.9375 0.5 0  0.96875 0.5 0  1 0.5 0  0 0.53125 0  0.03125 0.53125 0  0.0625 0.53125 0  0.09375 0.53125 0  0.125 0.53125 0  0.15625 0.53125 0  0.1875 0.53125 0  0.21875 0.53125 0  0.25 0.53125 0  0.28125 0.53125 0  0.3125 0.53125 0  0.34375 0.53125 0  0.375 0.53125 0  0.40625 0.53125 0  0.4375 0.53125 0  0.46875 0.53125 0  0.5 0.53125 0  0.53125 0.53125 0  0.5625 0.53125 0  0.59375 0.53125 0  0.625 0.53125 0  0.65625 0.53125 0  0.6875 0.53125 0  0.71875 0.53125 0  0.75 0.53125 0  0.78125 0.531
[...]
<PointData  Scalars="phi"> 
<DataArray  type="Float64"  Name="phi"  format="ascii">0.0000000000000000e+00  0.0000000000000000e+00  0.0000000000000000e+00  0.0000000000000000e+00  0.0000000000000000e+00  0.0000000000000000e+00  0.0000000000000000e+00  0.0000000000000000e+00  0.0000000000000000e+00  0.0000000000000000e+00  0.0000000000000000e+00  0.0000000000000000e+00  0.0000000000000000e+00  0.0000000000000000e+00  0.0000000000000000e+00  0.0000000000000000e+00  0.0000000000000000e+00  0.0000000000000000e+00  0.0000000000000000e+00  0.0000000000000000e+00  0.0000000000000000e+00  0.0000000000000000e+00  0.0000000000000000e+00  0.0000000000000000e+00  0.0000000000000000e+00  0.0000000000000000e+00  0.0000000000000000e+00  0.0000000000000000e+00  0.0000000000000000e+00  0.0000000000000000e+00  0.0000000000000000e+00  0.0000000000000000e+00  0.0000000000000000e+00  0.0000000000000000e+00  -1.3238690207529029e-18  4.3781502920827703e-08  1.7250976673842628e-07  4.2305926042612385e-07  8.2626497083234880e-07  1.4053891904708460e-06  2.1748816070274202e-06  3.1394900140251189e-06  4.2937619578977993e-06  5.6219610253506302e-06  7.0984046789642605e-06  8.6882137804949820e-06  1.0348447675137017e-05  1.2029583499676280e-05  1.3677284775833230e-05  1.5234392866058682e-05  1.6643065939011077e-05  1.7846984059287915e-05  1.8793536116497473e-05  1.9435904661630143e-05  1.9734968323371906e-05  1.9660948216825071e-05  1.9194734411670844e-05  1.8328840798080337e-05  1.7067951253464553e-05  1.5429036637474654e-05  1.3441040962667635e-05  1.1144157388400415e-05  8.5887452926602249e-06  5.8339950116304485e-06  2.9465841453686625e-06  0.0000000000000000e+00  0.0000000000000000e+00  -4.3781502926073074e-08  -5.1979022433765628e-18  2.1357576833083464e-07  6.7071428608895851e-07  1.4331926650969104e-06  2.5477239411526901e-06  4.0434768791606508e-06  5.9302968117937141e-06  8.1977059430320004e-06  1.0814729702260970e-05  1.3730562738770989e-05  1.6876054937854754e-05  2.0165965528621896e-05  2.3501903099768403e-05  2.6775842265540279e-05  2.9874084852384541e-05  3.2681515680334440e-05  3.5085990977682313e-05  3.6982691663119986e-05  3.8278274393022669e-05  3.8894660399181681e-05  3.8772315494829332e-05  3.7872893748787800e-05  3.6181141585379662e-05  3.3705987716562568e-05  3.0480776615187543e-05  2.6562638682492372e-05  2.2031028966573226e-05  1.6985509647894329e-05  1.1542902478515842e-05  5.8339950116304654e-06  0.0000000000000000e+00  0.0000000000000000e+00  -1.7250976674618020e-07  -2.1357576834620570e-07  -1.1365327273286280e-17  5.7890742014171518e-07  1.6160260963152234e-06  3.1818218897845108e-06  5.3206343912857773e-06  8.0480119303873132e-06  1.1349208766298317e-05  1.5178912964617691e-05  1.9462224920824469e-05  2.4096857326068937e-05  2.8956479400968032e-05  3.3895083245236672e-05  3.8752209867512702e-05  4.3358838406973689e-05  4.7543715542845850e-05  5.1139884133579174e-05  5.3991161435111527e-05  5.5958318168233400e-05  5.6924720227823228e-05  5.6801214583067576e-05  5.5530069201918405e-05  5.3087812640095632e-05  4.9486861016768076e-05  4.4775867033713648e-05  3.9038775946830120e-05  3.2392625274228523e-05  2.4984176168137797e-05  1.6985509647894410e-05  8.5887452926602944e-06  0.0000000000000000e+00  0.0000000000000000e+00  -4.2305926043625907e-07  -6.7071428610905288e-07  -5.7890742017143301e-07  -1.9427114036813753e-17  1.1901868403667146e-06  3.0862645453631108e-06  5.7483513487977721e-06  9.1985318621241825e-06  1.3418851681737243e-05  1.8350936671172738e-05  2.3897263037148928e-05  2.9924039740379736e-05  3.6265601654890032e-05  4.2730152634858629e-05  4.9106644538636175e-05  5.5172533336297489e-05  6.0702118420789480e-05  6.5475147507708555e-05  6.9285357970411869e-05  7.1948626576701097e-05  7.3310413350484823e-05  7.3252211176744558e-05  7.1696749841416863e-05  6.8611750066784342e-05  6.4012078007741620e-05  5.7960211518059856e-05  5.0564993840967658e-05  4.1978715307633489e-05  3.2392625274228747e-05  2.2031028966573490e-05  1.1144157388400581e-05  0.0000000000000000e+00  0.0000000000000000e+00  -8.2626497084470235e-07  -1.4331926651214049e-06  -1.6160260963514499e-06  -1.1901868404140786e-06  -2.8867878589059255e-17  2.0737364881781390e-06  5.1076432565705311e-06  9.1313611980120325e-06  1.4125047091469705e-05  2.0018873328497021e-05  2.6694563924343734e-05  3.3988919615224256e-05  4.1699207163048206e-05  4.9590215019951535e-05  5.7402712065100646e-05  6.4862990741091709e-05  7.1693132726426142e-05  7.7621605956671485e-05  8.2393787491915992e-05  8.5782007989275745e-05  8.7594730346997291e-05  8.7684506814742053e-05  8.5954404310745959e-05  8.2362645111498436e-05  7.6925277256835274e-05  6.9716763276636958e-05  6.0868454111898002e-05  5.0564993840968132e-05  3.9038775946830763e-05  2.6562638682492941e-05  1.3441040962667962e-05  0.0000000000000000e+00  0.0000000000000000e+00  -1.4053891904852229e-06  -2.5477239411811978e-06  -3.1818218898266735e-06  -3.0862645454182340e-06  -2.0737364882453278e-06  -3.9091131917501567e-17  3.2288548396266188e-06  7.6511787740919928e-06  1.3246767186356382e-05  1.9936229114740455e-05  2.7582759684399231e-05  3.5996260695123501e-05  4.4939662588090857e-05  5.4137215007367250e-05  6.3284436004754991e-05  7.2059344592583332e-05  8.0134550355380384e-05  8.7189739163366401e-05  9.2924077036610821e-05  9.7068055557729397e-05  9.9394321886715948e-05  9.9727073650983345e-05  9.7949652341686874e-05  9.4010036282739647e-05  8.7924013118358905e-05  7.9775898958016399e-05  6.9716763276637784e-05  5.7960211518061090e-05  4.4775867033714916e-05  3.0480776615188556e-05  1.5429036637475210e-05  0.0000000000000000e+00  0.0000000000000000e+00  -2.1748816070435981e-06  -4.0434768791927305e-06  -5.3206343913332222e-06  -5.7483513488597977e-06  -5.1076432566461263e-06  -3.2288548397145704e-06  -4.9461949423822158e-17  4.6272058667364039e-06  1.0633868982833836e-05  1.7933144740320003e-05  2.6372213908194425e-05  3.5736944976058780e-05  4.5759075597782164e-05  5.6125647845561487e-05  6.6490343799163965e-05  7.6486293286786105e-05  8.5739867252244384e-05  9.3884930507233315e-05  1.0057700807971723e-04  1.0550682075670505e-04  1.0841266770170201e-04  1.0909117635689887e-04  1.0740600059215872e-04  1.0329412488970169e-04  9.6769522267187486e-05  8.7924013118360206e-05  7.6925277256837321e-05  6.4012078007743924e-05  4.9486861016770197e-05  3.3705987716564174e-05  1.7067951253465413e-05  0.0000000000000000e+00  0.0000000000000000e+00  -3.1394900140428537e-06  -5.9302968118288812e-06  -8.0480119304393210e-06  -9.1985318621921688e-06  -9.1313611980948825e-06  -7.6511787741883683e-06  -4.6272058668447784e-06  -5.9348810249733503e-17  6.2146028149931622e-06  1.3924564397439018e-05  2.2963789395976134e-05  3.3097270080929089e-05  4.4029045483483565e-05  5.5412679844581215e-05  6.6863866944205633e-05  7.7974683491967257e-05  8.8328949595094599e-05  9.7518109901526516e-05  1.0515702706683145e-04  1.1089908057247345e-04  1.1444998858926983e-04  1.1557981759500049e-04  1.1413271201557378e-04  1.1003396166317641e-04  1.0329412488970355e-04  9.4010036282742723e-05  8.2362645111502109e-05  6.8611750066788029e-05  5.3087812640098851e-05  3.6181141585382027e-05  1.8328840798081588e-05  0.0000000000000000e+00  0.0000000000000000e+00  -4.2937619579168304e-06  -8.1977059430697374e-06  -1.1349208766354123e-05  -1.3418851681810184e-05  -1.4125047091558578e-05  -1.3246767186459746e-05  -1.0633868982950037e-05  -6.2146028151203934e-06  -6.8165524622941520e-17  7.9150440370777864e-06  1.7354047049655723e-05  2.8064503350526767e-05  3.9726531460020292e-05  5.1964284280673504e-05  6.4359692372170242e-05  7.6468019595706893e-05  8.7834639000816629e-05  9.8012388099211537e-05  1.0657883849736450e-04  1.1315281618573021e-04  1.1740953556982526e-04  1.1909376155844354e-04  1.1803048773642031e-04  1.1413271201557628e-04  1.0740600059216299e-04  9.7949652341692200e-05  8.5954404310751624e-05  7.1696749841422257e-05  5.5530069201922952e-05  3.7872893748791080e-05  1.9194734411672562e-05  0.0000000000000000e+00  0.0000000000000000e+00  -5.6219610253706863e-06  -1.0814729702300739e-05  -1.5178912964676495e-05  -1.8350936671249591e-05  -2.0018873328590642e-05  -1.9936229114849312e-05  -1.7933144740442348e-05  -1.3924564397572925e-05  -7.9150440372212128e-06  -7.5410758250250627e-17  9.6366633636691770e-06  2.0728468314495360e-05  3.2935604544876923e-05  4.5857151052374356e-05  5.9045817937913466e-05  7.2024648629934228e-05  8.4305046061514723e-05  9.5405433725203402e-05  1.0486983633454196e-04  1.1228566605261493e-04  1.1730002887263843e-04  1.1963392066672305e-04  1.1909376155844672e-04  1.1557981759500609e-04  1.0909117635690609e-04  9.9727073650991368e-05  8.7684506814750089e-05  7.3252211176751930e-05  5.6801214583073675e-05  3.8772315494833669e-05  1.9660948216827320e-05  0.0000000000000000e+00  0.0000000000000000e+00  -7.0984046789850662e-06  -1.3730562738812242e-05  -1.9462224920885462e-05  -2.3897263037228627e-05  -2.6694563924440804e-05  -2.7582759684512066e-05  -2.6372213908321199e-05  -2.2963789396114838e-05  -1.7354047049804215e-05  -9.6366633638252411e-06  -8.0696392851785291e-17  1.1279092314158203e-05  2.3845007599808965e-05  3.7276291093315929e-05  5.1101230130304167e-05  6.4815536684501211e-05  7.7901446961026918e-05  8.9847507443389441e-05  1.0016828879780835e-04  1.0842327013529546e-04  1.1423416629255125e-04  1.1730002887264232e-04  1.1740953556983226e-04  1.1444998858927907e-04  1.0841266770171264e-04  9.9394321886727034e-05  8.7594730347008025e-05  7.3310413350494432e-05  5.6924720227831041e-05  3.8894660399187190e-05  1.9734968323374752e-05  0.0000000000000000e+00  0.0000000000000000e+00  -8.6882137805162612e-06  -1.6876054937896946e-05  -2.4096857326131312e-05  -2.9924039740461227e-05  -3.3988919615323481e-05  -3.5996260695238812e-05  -3.5736944976188281e-05  -3.3097270081070713e-05  -2.8064503350678308e-05  -2.0728468314654534e-05  -1.1279092314322705e-05  -8.3774024579298414e-17  1.2741609773527360e-05  2.6508422357119254e-05  4.0809290502351905e-05  5.5117722133871900e-05  6.8891866542812754e-05  8.1595233963312043e-05  9.2717353941306439e-05  1.0179357883095916e-04  1.0842327013530000e-04  1.1228566605262329e-04  1.1315281618574153e-04  1.1089908057248678e-04  1.0550682075671944e-04  9.7068055557743884e-05  8.5782007989289419e-05  7.1948626576713145e-05  5.5958318168243083e-05  3.8278274393029445e-05  1.9435904661633629e-05  0.0000000000000000e+00  0.0000000000000000e+00  -1.0348447675158505e-05  -2.0165965528664495e-05  -2.8956479401031000e-05  -3.6265601654972282e-05  -4.1699207163148332e-05  -4.4939662588207165e-05  -4.5759075597912743e-05  -4.4029045483626293e-05  -3.9726531460172927e-05  -3.2935604545037141e-05  -2.3845007599974425e-05  -1.2741609773695740e-05  -8.4533429431907946e-17  1.3931386704303840e-05  2.8547082366298247e-05  4.3303697002967470e-05  5.7640596545475937e-05  7.1001355673216052e-05  8.2855162645384999e-05  9.2717353941311589e-05  1.0016828879781797e-04  1.0486983633455525e-04  1.0657883849738053e-04  1.0515702706684921e-04  1.0057700807973566e-04  9.2924077036628914e-05  8.2393787491932783e-05  6.9285357970426466e-05  5.3991161435123175e-05  3.6982691663128084e-05  1.8793536116501631e-05  0.0000000000000000e+00  0.0000000000000000e+00  -1.2029583499697717e-05  -2.3501903099810901e-05  -3.3895083245299481e-05  -4.2730152634940649e-05  -4.9590215020051350e-05  -5.4137215007483158e-05  -5.6125647845691557e-05  -5.5412679844723313e-05  -5.1964284280825367e-05  -4.5857151052533652e-05  -3.7276291093480307e-05  -2.6508422357286380e-05  -1.3931386704471482e-05  -8.3021386404378268e-17  1.4771124700378795e-05  2.9827124123109954e-05  4.4594053458630481e-05  5.8500865318942686e-05  7.1001355673221662e-05  8.1595233963322749e-05  8.9847507443404484e-05  9.5405433725221901e-05  9.8012388099232503e-05  9.7518109901548864e-05  9.3884930507255948e-05  8.7189739163388220e-05  7.7621605956691475e-05  6.5475147507725766e-05  5.1139884133592814e-05  3.5085990977691766e-05  1.7846984059292750e-05  0.0000000000000000e+00  0.0000000000000000e+00  -1.3677284775854380e-05  -2.6775842265582204e-05  -3.8752209867574658e-05  -4.9106644538717056e-05  -5.7402712065199038e-05  -6.3284436004869198e-05  -6.6490343799292063e-05  -6.6863866944345495e-05  -6.4359692372319618e-05  -5.9045817938070025e-05  -5.1101230130465571e-05  -4.0809290502515857e-05  -2.8547082366462517e-05  -1.4771124700541308e-05  -7.9422522820088318e-17  1.5205438385782964e-05  3.0263520617695393e-05  4.4594053458636437e-05  5.7640596545487464e-05  6.8891866542829234e-05  7.7901446961047544e-05  8.4305046061538562e-05  8.7834639000842595e-05  8.8328949595121582e-05  8.5739867252271205e-05  8.0134550355405904e-05  7.1693132726449277e-05  6.0702118420809267e-05  4.7543715542861455e-05  3.2681515680345215e-05  1.6643065939016576e-05  0.0000000000000000e+00  0.0000000000000000e+00  -1.5234392866079322e-05  -2.9874084852425449e-05  -4.3358838407034134e-05  -5.5172533336376378e-05  -6.4862990741187661e-05  -7.2059344592694639e-05  -7.6486293286910883e-05  -7.7974683492103405e-05  -7.6468019595852204e-05  -7.2024648630086410e-05  -6.4815536684657932e-05  -5.5117722134030925e-05  -4.3303697003126617e-05  -2.9827124123267194e-05  -1.5205438385936431e-05  -7.4021385198099357e-17  1.5205438385789105e-05  2.9827124123121999e-05  4.3303697002984953e-05  5.5117722133894160e-05  6.4815536684527381e-05  7.2024648629963312e-05  7.6468019595737766e-05  7.7974683491998726e-05  7.6486293286816978e-05  7.2059344592612416e-05  6.4862990741117892e-05  5.5172533336319742e-05  4.3358838406991165e-05  2.9874084852396575e-05  1.5234392866064814e-05  0.0000000000000000e+00  0.0000000000000000e+00  -1.6643065939031009e-05  -3.2681515680373939e-05  -4.7543715542904200e-05  -6.0702118420865618e-05  -7.1693132726518693e-05  -8.0134550355487720e-05  -8.5739867252364636e-05  -8.8328949595225734e-05  -8.7834639000956464e-05  -8.4305046061661037e-05  -7.7901446961177459e-05  -6.8891866542965328e-05  -5.7640596545628430e-05  -4.4594053458780927e-05  -3.0263520617842007e-05  -1.5205438385930294e-05  -6.7199890830966055e-17  1.4771124700396805e-05  2.8547082366321527e-05  4.0809290502379735e-05  5.1101230130335636e-05  5.9045817937947510e-05  6.4359692372205723e-05  6.6863866944241303e-05  6.6490343799198578e-05  6.3284436004787341e-05  5.7402712065129581e-05  4.9106644538660671e-05  3.8752209867531886e-05  2.6775842265553459e-05  1.3677284775839938e-05  0.0000000000000000e+00  0.0000000000000000e+00  -1.7846984059306967e-05  -3.5085990977720070e-05  -5.1139884133634929e-05  -6.5475147507781278e-05  -7.7621605956759861e-05  -8.7189739163468831e-05  -9.3884930507348011e-05  -9.7518109901651484e-05  -9.8012388099344690e-05  -9.5405433725342587e-05  -8.9847507443532502e-05  -8.1595233963456851e-05  -7.1001355673360589e-05  -5.8500865319085075e-05  -4.4594053458774964e-05  -2.9827124123255149e-05  -1.4771124700523297e-05  -5.9394992544764790e-17  1.3931386704332522e-05  2.6508422357152213e-05  3.7276291093352229e-05  4.5857151052412899e-05  5.1964284280713098e-05  5.5412679844620612e-05  5.6125647845599414e-05  5.4137215007402467e-05  4.9590215019982882e-05  4.2730152634885063e-05  3.3895083245257313e-05  2.3501903099782566e-05  1.2029583499683481e-05  0.0000000000000000e+00  0.0000000000000000e+00  -1.8793536116515495e-05  -3.6982691663155691e-05  -5.3991161435164253e-05  -6.9285357970480608e-05  -8.2393787491999489e-05  -9.2924077036707559e-05  -1.0057700807982547e-04  -1.0515702706694930e-04  -1.0657883849748998e-04  -1.0486983633467299e-04  -1.0016828879794286e-04  -9.2717353941442426e-05  -8.2855162645520525e-05  -7.1001355673354965e-05  -5.7640596545616911e-05  -4.3303697003109128e-05  -2.8547082366439237e-05  -1.3931386704442799e-05  -5.1058139137405764e-17  1.2741609773564826e-05  2.3845007599849447e-05  3.2935604544919308e-05  3.9726531460063362e-05  4.4029045483526072e-05  4.5759075597822822e-05  4.4939662588128418e-05  4.1699207163081511e-05  3.6265601654918038e-05  2.8956479400989851e-05  2.0165965528636841e-05  1.0348447675144610e-05  0.0000000000000000e+00  0.0000000000000000e+00  -1.9435904661647012e-05  -3.8278274393056083e-05  -5.5958318168282731e-05  -7.1948626576765417e-05  -8.5782007989353821e-05  -9.7068055557819792e-05  -1.0550682075680612e-04  -1.1089908057258342e-04  -1.1315281618584718e-04  -1.1228566605273694e-04  -1.0842327013542056e-04  -1.0179357883108547e-04  -9.2717353941437276e-05  -8.1595233963446158e-05  -6.8891866542948848e-05  -5.5117722134008672e-05  -4.0809290502488027e-05  -2.6508422357253413e-05  -1.2741609773658274e-05  -4.2631417843804330e-17  1.1279092314202032e-05  2.0728468314540754e-05  2.8064503350572517e-05  3.3097270080973934e-05  3.5736944976101450e-05  3.5996260695162769e-05  3.3988919615258950e-05  2.9924039740408840e-05  2.4096857326091573e-05  1.6876054937870241e-05  8.6882137805028425e-06  0.0000000000000000e+00  0.0000000000000000e+00  -1.9734968323387522e-05  -3.8894660399212607e-05  -5.6924720227868873e-05  -7.3310413350544318e-05  -8.7594730347069486e-05  -9.9394321886799486e-05  -1.0841266770179536e-04  -1.1444998858937130e-04  -1.1740953556993310e-04  -1.1730002887275079e-04  -1.1423416629266633e-04  -1.0842327013541602e-04  -1.0016828879793325e-04  -8.9847507443517458e-05  -7.7901446961156832e-05  -6.4815536684631762e-05  -5.1101230130434109e-05  -3.7276291093444007e-05  -2.3845007599933943e-05  -1.1279092314278876e-05  -3.4507130317864092e-17  9.6366633637166159e-06  1.7354047049703218e-05  2.2963789396022440e-05  2.6372213908238298e-05  2.7582759684439461e-05  2.6694563924379197e-05  2.3897263037178608e-05  1.9462224920847519e-05  1.3730562738786739e-05  7.0984046789722531e-06  0.0000000000000000e+00  0.0000000000000000e+00  -1.9660948216839355e-05  -3.8772315494857630e-05  -5.6801214583109332e-05  -7.3252211176798944e-05  -8.7684506814808013e-05  -9.9727073651059646e-05  -1.0909117635698407e-04  -1.1557981759509304e-04  -1.1909376155854178e-04  -1.1963392066682531e-04  -1.1730002887274692e-04  -1.1228566605272858e-04  -1.0486983633465970e-04  -9.5405433725324101e-05  -8.4305046061637211e-05  -7.2024648630057326e-05  -5.9045817938035981e-05  -4.5857151052495109e-05  -3.2935604544994755e-05  -2.0728468314609140e-05  -9.6366633637778022e-06  -2.7011371575778859e-17  7.9150440371259826e-06  1.3924564397485805e-05  1.7933144740364177e-05  1.9936229114780849e-05  2.0018873328532545e-05  1.8350936671202425e-05  1.5178912964640713e-05  1.0814729702276690e-05  5.6219610253586025e-06  0.0000000000000000e+00  0.0000000000000000e+00  -1.9194734411683746e-05  -3.7872893748813347e-05  -5.5530069201956094e-05  -7.1696749841465950e-05  -8.5954404310805454e-05  -9.7949652341755667e-05  -1.0740600059223547e-04  -1.1413271201565710e-04  -1.1803048773650866e-04  -1.1909376155853860e-04  -1.1740953556992611e-04  -1.1315281618583587e-04  -1.0657883849747398e-04  -9.8012388099323752e-05  -8.7834639000930497e-05  -7.6468019595821331e-05  -6.4359692372284151e-05  -5.1964284280785767e-05  -3.9726531460129843e-05  -2.8064503350632558e-05  -1.7354047049756720e-05  -7.9150440371730166e-06  -2.0380340614415981e-17  6.2146028150393874e-06  1.0633868982877353e-05  1.3246767186396085e-05  1.4125047091504556e-05  1.3418851681766325e-05  1.1349208766320850e-05  8.1977059430473741e-06  4.2937619579055928e-06  0.0000000000000000e+00  0.0000000000000000e+00  -1.8328840798091820e-05  -3.6181141585402397e-05  -5.3087812640129161e-05  -6.8611750066827995e-05  -8.2362645111551345e-05  -9.4010036282800768e-05  -1.0329412488976985e-04  -1.1003396166325033e-04  -1.1413271201565460e-04  -1.1557981759508743e-04  -1.1444998858936207e-04  -1.1089908057257010e-04  -1.0515702706693158e-04  -9.7518109901629163e-05  -8.8328949595198778e-05  -7.7974683492071937e-05  -6.6863866944309839e-05  -5.5412679844683923e-05  -4.4029045483583793e-05  -3.3097270081025868e-05  -2.2963789396068529e-05  -1.3924564397526137e-05  -6.2146028150741674e-06  -1.4761786840144523e-17  4.6272058