<?xml version="1.0"?>
<VTKFile type="UnstructuredGrid"  version="0.1"  >
<UnstructuredGrid>
<Piece  NumberOfPoints="1089" NumberOfCells="2048">
<Points>
<DataArray  type="Float64"  NumberOfComponents="3"  format="ascii">0 0 0  0.03125 0 0  0.0625 0 0  0.09375 0 0  0.125 0 0  0.15625 0 0  0.1875 0 0  0.21875 0 0  0.25 0 0  0.28125 0 0  0.3125 0 0  0.34375 0 0  0.375 0 0  0.40625 0 0  0.4375 0 0  0.46875 0 0  0.5 0 0  0.53125 0 0  0.5625 0 0  0.59375 0 0  0.625 0 0  0.65625 0 0  0.6875 0 0  0.71875 0 0  0.75 0 0  0.78125 0 0  0.8125 0 0  0.84375 0 0  0.875 0 0  0.90625 0 0  0.9375 0 0  0.96875 0 0  1 0 0  0 0.03125 0  0.03125 0.03125 0  0.0625 0.03125 0  0.09375 0.03125 0  0.125 0.03125 0  0.15625 0.03125 0  0.1875 0.03125 0  0.21875 0.03125 0  0.25 0.03125 0  0.28125 0.03125 0  0.3125 0.03125 0  0.34375 0.03125 0  0.375 0.03125 0  0.40625 0.03125 0  0.4375 0.03125 0  0.46875 0.03125 0  0.5 0.03125 0  0.53125 0.03125 0  0.5625 0.03125 0  0.59375 0.03125 0  0.625 0.03125 0  0.65625 0.03125 0  0.6875 0.03125 0  0.71875 0.03125 0  0.75 0.03125 0  0.78125 0.03125 0  0.8125 0.03125 0  0.84375 0.03125 0  0.875 0.03125 0  0.90625 0.03125 0  0.9375 0.03125 0  0.96875 0.03125 0  1 0.03125 0  0 0.0625 0  0.03125 0.0625 0  0.0625 0.0625 0  0.09375 0.0625 0  0.125 0.0625 0  0.15625 0.0625 0  0.1875 0.0625 0  0.21875 0.0625 0  0.25 0.0625 0  0.28125 0.0625 0  0.3125 0.0625 0  0.34375 0.0625 0  0.375 0.0625 0  0.40625 0.0625 0  0.4375 0.0625 0  0.46875 0.0625 0  0.5 0.0625 0  0.53125 0.0625 0  0.5625 0.0625 0  0.59375 0.0625 0  0.625 0.0625 0  0.65625 0.0625 0  0.6875 0.0625 0  0.71875 0.0625 0  0.75 0.0625 0  0.78125 0.0625 0  0.8125 0.0625 0  0.84375 0.0625 0  0.875 0.0625 0  0.90625 0.0625 0  0.9375 0.0625 0  0.96875 0.0625 0  1 0.0625 0  0 0.09375 0  0.03125 0.09375 0  0.0625 0.09375 0  0.09375 0.09375 0  0.125 0.09375 0  0.15625 0.09375 0  0.1875 0.09375 0  0.21875 0.09375 0  0.25 0.09375 0  0.28125 0.09375 0  0.3125 0.09375 0  0.34375 0.09375 0  0.375 0.09375 0  0.40625 0.09375 0  0.4375 0.09375 0  0.46875 0.09375 0  0.5 0.09375 0  0.53125 0.09375 0  0.5625 0.09375 0  0.59375 0.09375 0  0.625 0.09375 0  0.65625 0.09375 0  0.6875 0.09375 0  0.71875 0.09375 0  0.75 0.09375 0  0.78125 0.09375 0  0.8125 0.09375 0  0.84375 0.09375 0  0.875 0.09375 0  0.90625 0.09375 0  0.9375 0.09375 0  0.96875 0.09375 0  1 0.09375 0  0 0.125 0  0.03125 0.125 0  0.0625 0.125 0  0.09375 0.125 0  0.125 0.125 0  0.15625 0.125 0  0.1875 0.125 0  0.21875 0.125 0  0.25 0.125 0  0.28125 0.125 0  0.3125 0.125 0  0.34375 0.125 0  0.375 0.125 0  0.40625 0.125 0  0.4375 0.125 0  0.46875 0.125 0  0.5 0.125 0  0.53125 0.125 0  0.5625 0.125 0  0.59375 0.125 0  0.625 0.125 0  0.65625 0.125 0  0.6875 0.125 0  0.71875 0.125 0  0.75 0.125 0  0.78125 0.125 0  0.8125 0.125 0  0.84375 0.125 0  0.875 0.125 0  0.90625 0.125 0  0.9375 0.125 0  0.96875 0.125 0  1 0.125 0  0 0.15625 0  0.03125 0.15625 0  0.0625 0.15625 0  0.09375 0.15625 0  0.125 0.15625 0  0.15625 0.15625 0  0.1875 0.15625 0  0.21875 0.15625 0  0.25 0.15625 0  0.28125 0.15625 0  0.3125 0.15625 0  0.34375 0.15625 0  0.375 0.15625 0  0.40625 0.15625 0  0.4375 0.15625 0  0.46875 0.15625 0  0.5 0.15625 0  0.53125 0.15625 0  0.5625 0.15625 0  0.59375 0.15625 0  0.625 0.15625 0  0.65625 0.15625 0  0.6875 0.15625 0  0.71875 0.15625 0  0.75 0.15625 0  0.78125 0.15625 0  0.8125 0.15625 0  0.84375 0.15625 0  0.875 0.15625 0  0.90625 0.15625 0  0.9375 0.15625 0  0.96875 0.15625 0  1 0.15625 0  0 0.1875 0  0.03125 0.1875 0  0.0625 0.1875 0  0.09375 0.1875 0  0.125 0.1875 0  0.15625 0.1875 0  0.1875 0.1875 0  0.21875 0.1875 0  0.25 0.1875 0  0.28125 0.1875 0  0.3125 0.1875 0  0.34375 0.1875 0  0.375 0.1875 0  0.40625 0.1875 0  0.4375 0.1875 0  0.46875 0.1875 0  0.5 0.1875 0  0.53125 0.1875 0  0.5625 0.1875 0  0.59375 0.1875 0  0.625 0.1875 0  0.65625 0.1875 0  0.6875 0.1875 0  0.71875 0.1875 0  0.75 0.1875 0  0.78125 0.1875 0  0.8125 0.1875 0  0.84375 0.1875 0  0.875 0.1875 0  0.90625 0.1875 0  0.9375 0.1875 0  0.96875 0.1875 0  1 0.1875 0  0 0.21875 0  0.03125 0.21875 0  0.0625 0.21875 0  0.09375 0.21875 0  0.125 0.21875 0  0.15625 0.21875 0  0.1875 0.21875 0  0.21875 0.21875 0  0.25 0.21875 0  0.28125 0.21875 0  0.3125 0.21875 0  0.34375 0.21875 0  0.375 0.21875 0  0.40625 0.21875 0  0.4375 0.21875 0  0.46875 0.21875 0  0.5 0.21875 0  0.53125 0.21875 0  0.5625 0.21875 0  0.59375 0.21875 0  0.625 0.21875 0  0.65625 0.21875 0  0.6875 0.21875 0  0.71875 0.21875 0  0.75 0.21875 0  0.78125 0.21875 0  0.8125 0.21875 0  0.84375 0.21875 0  0.875 0.21875 0  0.90625 0.21875 0  0.9375 0.21875 0  0.96875 0.21875 0  1 0.21875 0  0 0.25 0  0.03125 0.25 0  0.0625 0.25 0  0.09375 0.25 0  0.125 0.25 0  0.15625 0.25 0  0.1875 0.25 0  0.21875 0.25 0  0.25 0.25 0  0.28125 0.25 0  0.3125 0.25 0  0.34375 0.25 0  0.375 0.25 0  0.40625 0.25 0  0.4375 0.25 0  0.46875 0.25 0  0.5 0.25 0  0.53125 0.25 0  0.5625 0.25 0  0.59375 0.25 0  0.625 0.25 0  0.65625 0.25 0  0.6875 0.25 0  0.71875 0.25 0  0.75 0.25 0  0.78125 0.25 0  0.8125 0.25 0  0.84375 0.25 0  0.875 0.25 0  0.90625 0.25 0  0.9375 0.25 0  0.96875 0.25 0  1 0.25 0  0 0.28125 0  0.03125 0.28125 0  0.0625 0.28125 0  0.09375 0.28125 0  0.125 0.28125 0  0.15625 0.28125 0  0.1875 0.28125 0  0.21875 0.28125 0  0.25 0.28125 0  0.28125 0.28125 0  0.3125 0.28125 0  0.34375 0.28125 0  0.375 0.28125 0  0.40625 0.28125 0  0.4375 0.28125 0  0.46875 0.28125 0  0.5 0.28125 0  0.53125 0.28125 0  0.5625 0.28125 0  0.59375 0.28125 0  0.625 0.28125 0  0.65625 0.28125 0  0.6875 0.28125 0  0.71875 0.28125 0  0.75 0.28125 0  0.78125 0.28125 0  0.8125 0.28125 0  0.84375 0.28125 0  0.875 0.28125 0  0.90625 0.28125 0  0.9375 0.28125 0  0.96875 0.28125 0  1 0.28125 0  0 0.3125 0  0.03125 0.3125 0  0.0625 0.3125 0  0.09375 0.3125 0  0.125 0.3125 0  0.15625 0.3125 0  0.1875 0.3125 0  0.21875 0.3125 0  0.25 0.3125 0  0.28125 0.3125 0  0.3125 0.3125 0  0.34375 0.3125 0  0.375 0.3125 0  0.40625 0.3125 0  0.4375 0.3125 0  0.46875 0.3125 0  0.5 0.3125 0  0.53125 0.3125 0  0.5625 0.3125 0  0.59375 0.3125 0  0.625 0.3125 0  0.65625 0.3125 0  0.6875 0.3125 0  0.71875 0.3125 0  0.75 0.3125 0  0.78125 0.3125 0  0.8125 0.3125 0  0.84375 0.3125 0  0.875 0.3125 0  0.90625 0.3125 0  0.9375 0.3125 0  0.96875 0.3125 0  1 0.3125 0  0 0.34375 0  0.03125 0.34375 0  0.0625 0.34375 0  0.09375 0.34375 0  0.125 0.34375 0  0.15625 0.34375 0  0.1875 0.34375 0  0.21875 0.34375 0  0.25 0.34375 0  0.28125 0.34375 0  0.3125 0.34375 0  0.34375 0.34375 0  0.375 0.34375 0  0.40625 0.34375 0  0.4375 0.34375 0  0.46875 0.34375 0  0.5 0.34375 0  0.53125 0.34375 0  0.5625 0.34375 0  0.59375 0.34375 0  0.625 0.34375 0  0.65625 0.34375 0  0.6875 0.34375 0  0.71875 0.34375 0  0.75 0.34375 0  0.78125 0.34375 0  0.8125 0.34375 0  0.84375 0.34375 0  0.875 0.34375 0  0.90625 0.34375 0  0.9375 0.34375 0  0.96875 0.34375 0  1 0.34375 0  0 0.375 0  0.03125 0.375 0  0.0625 0.375 0  0.09375 0.375 0  0.125 0.375 0  0.15625 0.375 0  0.1875 0.375 0  0.21875 0.375 0  0.25 0.375 0  0.28125 0.375 0  0.3125 0.375 0  0.34375 0.375 0  0.375 0.375 0  0.40625 0.375 0  0.4375 0.375 0  0.46875 0.375 0  0.5 0.375 0  0.53125 0.375 0  0.5625 0.375 0  0.59375 0.375 0  0.625 0.375 0  0.65625 0.375 0  0.6875 0.375 0  0.71875 0.375 0  0.75 0.375 0  0.78125 0.375 0  0.8125 0.375 0  0.84375 0.375 0  0.875 0.375 0  0.90625 0.375 0  0.9375 0.375 0  0.96875 0.375 0  1 0.375 0  0 0.40625 0  0.03125 0.40625 0  0.0625 0.40625 0  0.09375 0.40625 0  0.125 0.40625 0  0.15625 0.40625 0  0.1875 0.40625 0  0.21875 0.40625 0  0.25 0.40625 0  0.28125 0.40625 0  0.3125 0.40625 0  0.34375 0.40625 0  0.375 0.40625 0  0.40625 0.40625 0  0.4375 0.40625 0  0.46875 0.40625 0  0.5 0.40625 0  0.53125 0.40625 0  0.5625 0.40625 0  0.59375 0.40625 0  0.625 0.40625 0  0.65625 0.40625 0  0.6875 0.40625 0  0.71875 0.40625 0  0.75 0.40625 0  0.78125 0.40625 0  0.8125 0.40625 0  0.84375 0.40625 0  0.875 0.40625 0  0.90625 0.40625 0  0.9375 0.40625 0  0.96875 0.40625 0  1 0.40625 0  0 0.4375 0  0.03125 0.4375 0  0.0625 0.4375 0  0.09375 0.4375 0  0.125 0.4375 0  0.15625 0.4375 0  0.1875 0.4375 0  0.21875 0.4375 0  0.25 0.4375 0  0.28125 0.4375 0  0.3125 0.4375 0  0.34375 0.4375 0  0.375 0.4375 0  0.40625 0.4375 0  0.4375 0.4375 0  0.46875 0.4375 0  0.5 0.4375 0  0.53125 0.4375 0  0.5625 0.4375 0  0.59375 0.4375 0  0.625 0.4375 0  0.65625 0.4375 0  0.6875 0.4375 0  0.71875 0.4375 0  0.75 0.4375 0  0.78125 0.4375 0  0.8125 0.4375 0  0.84375 0.4375 0  0.875 0.4375 0  0.90625 0.4375 0  0.9375 0.4375 0  0.96875 0.4375 0  1 0.4375 0  0 0.46875 0  0.03125 0.46875 0  0.0625 0.46875 0  0.09375 0.46875 0  0.125 0.46875 0  0.15625 0.46875 0  0.1875 0.46875 0  0.21875 0.46875 0  0.25 0.46875 0  0.28125 0.46875 0  0.3125 0.46875 0  0.34375 0.46875 0  0.375 0.46875 0  0.40625 0.46875 0  0.4375 0.46875 0  0.46875 0.46875 0  0.5 0.46875 0  0.53125 0.46875 0  0.5625 0.46875 0  0.59375 0.46875 0  0.625 0.46875 0  0.65625 0.46875 0  0.6875 0.46875 0  0.71875 0.46875 0  0.75 0.46875 0  0.78125 0.46875 0  0.8125 0.46875 0  0.84375 0.46875 0  0.875 0.46875 0  0.90625 0.46875 0  0.9375 0.46875 0  0.96875 0.46875 0  1 0.46875 0  0 0.5 0  0.03125 0.5 0  0.0625 0.5 0  0.09375 0.5 0  0.125 0.5 0  0.15625 0.5 0  0.1875 0.5 0  0.21875 0.5 0  0.25 0.5 0  0.28125 0.5 0  0.3125 0.5 0  0.34375 0.5 0  0.375 0.5 0  0.40625 0.5 0  0.4375 0.5 0  0.46875 0.5 0  0.5 0.5 0  0.53125 0.5 0  0.5625 0.5 0  0.59375 0.5 0  0.625 0.5 0  0.65625 0.5 0  0.6875 0.5 0  0.71875 0.5 0  0.75 0.5 0  0.78125 0.5 0  0.8125 0.5 0  0.84375 0.5 0  0.875 0.5 0  0.90625 0.5 0  0.9375 0.5 0  0.96875 0.5 0  1 0.5 0  0 0.53125 0  0.03125 0.53125 0  0.0625 0.53125 0  0.09375 0.53125 0  0.125 0.53125 0  0.15625 0.53125 0  0.1875 0.53125 0  0.21875 0.53125 0  0.25 0.53125 0  0.28125 0.53125 0  0.3125 0.53125 0  0.34375 0.53125 0  0.375 0.53125 0  0.40625 0.53125 0  0.4375 0.53125 0  0.46875 0.53125 0  0.5 0.53125 0  0.53125 0.53125 0  0.5625 0.53125 0  0.59375 0.53125 0  0.625 0.53125 0  0.65625 0.53125 0  0.6875 0.53125 0  0.71875 0.53125 0  0.75 0.53125 0  0.78125 0.531
[...]
<PointData  Scalars="phi"> 
<DataArray  type="Float64"  Name="phi"  format="ascii">0.0000000000000000e+00  0.0000000000000000e+00  0.0000000000000000e+00  0.0000000000000000e+00  0.0000000000000000e+00  0.0000000000000000e+00  0.0000000000000000e+00  0.0000000000000000e+00  0.0000000000000000e+00  0.0000000000000000e+00  0.0000000000000000e+00  0.0000000000000000e+00  0.0000000000000000e+00  0.0000000000000000e+00  0.0000000000000000e+00  0.0000000000000000e+00  0.0000000000000000e+00  0.0000000000000000e+00  0.0000000000000000e+00  0.0000000000000000e+00  0.0000000000000000e+00  0.0000000000000000e+00  0.0000000000000000e+00  0.0000000000000000e+00  0.0000000000000000e+00  0.0000000000000000e+00  0.0000000000000000e+00  0.0000000000000000e+00  0.0000000000000000e+00  0.0000000000000000e+00  0.0000000000000000e+00  0.0000000000000000e+00  0.0000000000000000e+00  0.0000000000000000e+00  -2.4629390684860347e-19  2.3619972587317043e-09  9.3068435068299443e-09  2.2823903860310230e-08  4.4576715419566615e-08  7.5820270989592497e-08  1.1733412632867712e-07  1.6937442328988683e-07  2.3164700384941599e-07  3.0330289383802923e-07  3.8295652905752242e-07  4.6872619180899338e-07  5.5829524830447694e-07  6.4899195684097676e-07  7.3788488281250499e-07  8.2189033707599962e-07  8.9788777241461545e-07  9.6283874738213697e-07  1.0139049103859499e-06  1.0485604759033919e-06  1.0646948591977477e-06  1.0607014995112921e-06  1.0355494225735476e-06  9.8883475529388415e-07  9.2081019127276150e-07  8.3239130264238160e-07  7.2513960908035670e-07  6.0122351792542990e-07  4.6335990056938131e-07  3.1474205560869525e-07  1.5896721699083896e-07  0.0000000000000000e+00  0.0000000000000000e+00  -2.3619972597102598e-09  -9.7226993224488768e-19  1.1522340388141244e-08  3.6184808643345149e-08  7.7320259031313822e-08  1.3744884401729757e-07  2.1814420859195672e-07  3.1993750511957479e-07  4.4226346005244388e-07  5.8345100579325201e-07  7.4075921087284343e-07  9.1045745001554001e-07  1.0879470124925459e-06  1.2679197149772805e-06  1.4445476244834477e-06  1.6116967630436827e-06  1.7631567056743666e-06  1.8928773338614013e-06  1.9952036936577538e-06  2.0650999432789659e-06  2.0983537596160117e-06  2.0917532934498015e-06  2.0432297947764176e-06  1.9519603383526029e-06  1.8184266251653950e-06  1.6444275782353652e-06  1.4330453633661325e-06  1.1885665535006689e-06  9.1636249456534889e-07  6.2273568053041841e-07  3.1474205560869615e-07  0.0000000000000000e+00  0.0000000000000000e+00  -9.3068435082826455e-09  -1.1522340391028478e-08  -2.1437194592459601e-18  3.1231859308710643e-08  8.7184060741160169e-08  1.7165821365275095e-07  2.8704642395124925e-07  4.3418751875252964e-07  6.1228597033353106e-07  8.1889721517498861e-07  1.0499804449724354e-06  1.3000172940457699e-06  1.5621922596202329e-06  1.8286282649106595e-06  2.0906686016611148e-06  2.3391946516571482e-06  2.5649673562257997e-06  2.7589794341086348e-06  2.9128048791437041e-06  3.0189323188577680e-06  3.0710693827693802e-06  3.0644062950515012e-06  2.9958284321219922e-06  2.8640695175088793e-06  2.6697993966374789e-06  2.4156428662959208e-06  2.1061287446177819e-06  1.7475711660786968e-06  1.3478878451511637e-06  9.1636249456535344e-07  4.6335990056938491e-07  0.0000000000000000e+00  0.0000000000000000e+00  -2.2823903862220038e-08  -3.6184808647141306e-08  -3.1231859314348250e-08  -3.7067098287057117e-18  6.4210177062193881e-08  1.6650292727399911e-07  3.1012160899196196e-07  4.9625767952661661e-07  7.2394250488245744e-07  9.9002682016150349e-07  1.2892492497357209e-06  1.6143918123344705e-06  1.9565169305021364e-06  2.3052772671098216e-06  2.6492868463720234e-06  2.9765394932230215e-06  3.2748587363297965e-06  3.5323620395215820e-06  3.7379216039271961e-06  3.8816040435098060e-06  3.9550719788832727e-06  3.9519319913163718e-06  3.8680153789224525e-06  3.7015806855977427e-06  3.4534299353654360e-06  3.1269337872827891e-06  2.7279642974699398e-06  2.2647374777311076e-06  1.7475711660787091e-06  1.1885665535006833e-06  6.0122351792543890e-07  0.0000000000000000e+00  0.0000000000000000e+00  -4.4576715421911473e-08  -7.7320259035975084e-08  -8.7184060748082930e-08  -6.4210177071297699e-08  -5.5900242218379704e-18  1.1187738140875225e-07  2.7555562434561165e-07  4.9263384493920761e-07  7.6204150813331746e-07  1.0800114380944213e-06  1.4401626854910172e-06  1.8336907052977265e-06  2.2496581079608018e-06  2.6753753101106795e-06  3.0968568805486137e-06  3.4993363892243103e-06  3.8678202367902375e-06  4.1876593603053314e-06  4.4451169383713403e-06  4.6279102870237431e-06  4.7257060444733862e-06  4.7305494545122177e-06  4.6372110101985710e-06  4.4434368174941071e-06  4.1500926627144318e-06  3.7611957741351388e-06  3.2838324905502018e-06  2.7279642974699656e-06  2.1061287446178162e-06  1.4330453633661630e-06  7.2513960908037427e-07  0.0000000000000000e+00  0.0000000000000000e+00  -7.5820270992345632e-08  -1.3744884402277073e-07  -1.7165821366087987e-07  -1.6650292728468949e-07  -1.1187738142188103e-07  -7.7087513536407888e-18  1.7419562536889531e-07  4.1277850432638429e-07  7.1465860461843992e-07  1.0755528107425841e-06  1.4880805460201987e-06  1.9419860769132681e-06  2.4244795809901098e-06  2.9206844199113767e-06  3.4141738956630105e-06  3.8875772429761886e-06  4.3232318597837350e-06  4.7038569072356823e-06  5.0132224939708555e-06  5.2367887321212729e-06  5.3622900129455031e-06  5.3802418579654662e-06  5.2843505801271079e-06  5.0718096276189869e-06  4.7434707385012503e-06  4.3038827383322244e-06  3.7611957741351837e-06  3.1269337872828556e-06  2.4156428662959890e-06  1.6444275782354196e-06  8.3239130264241146e-07  0.0000000000000000e+00  0.0000000000000000e+00  -1.1733412633180740e-07  -2.1814420859817989e-07  -2.8704642396049250e-07  -3.1012160900411810e-07  -2.7555562436054092e-07  -1.7419562538642741e-07  -9.9684622648338430e-18  2.4963618982737934e-07  5.7369363120985536e-07  9.6748708694379419e-07  1.4227720112581142e-06  1.9279960816672727e-06  2.4686866354255198e-06  3.0279596982888757e-06  3.5871315357167733e-06  4.1264096261549663e-06  4.6256368085253196e-06  5.0650602133844517e-06  5.4260955326230435e-06  5.6920572574156809e-06  5.8488267162398854e-06  5.8854320284595282e-06  5.7945173665176598e-06  5.5726830645657837e-06  5.2206829621756616e-06  4.7434707385013198e-06  4.1500926627145410e-06  3.4534299353655592e-06  2.6697993966375928e-06  1.8184266251654816e-06  9.2081019127280777e-07  0.0000000000000000e+00  0.0000000000000000e+00  -1.6937442329335932e-07  -3.1993750512647853e-07  -4.3418751876278397e-07  -4.9625767954010275e-07  -4.9263384495577049e-07  -4.1277850434583508e-07  -2.4963618984949834e-07  -1.2269875874574007e-17  3.3527571772472239e-07  7.5122553466554733e-07  1.2388886628438691e-06  1.7855865148123960e-06  2.3753520965097813e-06  2.9894953160307171e-06  3.6072829829233519e-06  4.2067077737854452e-06  4.7653169243117656e-06  5.2610690115868903e-06  5.6731860062781686e-06  5.9829678487690225e-06  6.1745381340127034e-06  6.2354920263361013e-06  6.1574211702863963e-06  5.9362949765263571e-06  5.5726830645658828e-06  5.0718096276191520e-06  4.4434368174943036e-06  3.7015806855979404e-06  2.8640695175090517e-06  1.9519603383527300e-06  9.8883475529395107e-07  0.0000000000000000e+00  0.0000000000000000e+00  -2.3164700385319233e-07  -4.4226346005995193e-07  -6.1228597034468331e-07  -7.2394250489712466e-07  -7.6204150815133110e-07  -7.1465860463959457e-07  -5.7369363123391195e-07  -3.3527571775141176e-07  -1.4513554820840550e-17  4.2701394592069133e-07  9.3624496259999936e-07  1.5140704536954076e-06  2.1432329216838550e-06  2.8034555429111781e-06  3.4721836126218719e-06  4.1254237667058168e-06  4.7386490351124851e-06  5.2877351529985881e-06  5.7498922515587349e-06  6.1045561220354829e-06  6.3342046915720433e-06  6.4250681134150906e-06  6.3677048507199853e-06  6.1574211702865301e-06  5.7945173665178893e-06  5.2843505801273934e-06  4.6372110101988750e-06  3.8680153789227405e-06  2.9958284321222357e-06  2.0432297947765933e-06  1.0355494225736395e-06  0.0000000000000000e+00  0.0000000000000000e+00  -3.0330289384206836e-07  -5.8345100580128263e-07  -8.1889721518691726e-07  -9.9002682017719224e-07  -1.0800114381136894e-06  -1.0755528107652122e-06  -9.6748708696952620e-07  -7.5122553469409520e-07  -4.2701394595173938e-07  -1.6604636981969673e-17  5.1989472568443896e-07  1.1182938473282231e-06  1.7768647138763618e-06  2.4739777729906954e-06  3.1855018860591598e-06  3.8857054075335907e-06  4.5482286910822748e-06  5.1470908471799138e-06  5.6576921635057529e-06  6.0577736659517909e-06  6.3282968423345494e-06  6.4542095144193351e-06  6.4250681134152608e-06  6.2354920263364020e-06  5.8854320284599145e-06  5.3802418579658957e-06  4.7305494545126496e-06  3.9519319913167665e-06  3.0644062950518277e-06  2.0917532934500340e-06  1.0607014995114128e-06  0.0000000000000000e+00  0.0000000000000000e+00  -3.8295652906178088e-07  -7.4075921088131027e-07  -1.0499804449850122e-06  -1.2892492497522621e-06  -1.4401626855113329e-06  -1.4880805460440569e-06  -1.4227720112852449e-06  -1.2388886628739685e-06  -9.3624496263273432e-07  -5.1989472571945191e-07  -1.8456980555398836e-17  6.0850321146982914e-07  1.2864300865746432e-06  2.0110432834979108e-06  2.7568940637086286e-06  3.4967762589307543e-06  4.2027566877344732e-06  4.8472426060724888e-06  5.4040452657435421e-06  5.8493987139378554e-06  6.1628945941748433e-06  6.3282968423347578e-06  6.3342046915724185e-06  6.1745381340131989e-06  5.8488267162404546e-06  5.3622900129460978e-06  4.7257060444739630e-06  3.9550719788837877e-06  3.0710693827697990e-06  2.0983537596163073e-06  1.0646948591979002e-06  0.0000000000000000e+00  0.0000000000000000e+00  -4.6872619181342616e-07  -9.1045745002435371e-07  -1.3000172940588623e-06  -1.6143918123516897e-06  -1.8336907053188746e-06  -1.9419860769381039e-06  -1.9279960816955145e-06  -1.7855865148437281e-06  -1.5140704537294827e-06  -1.1182938473646686e-06  -6.0850321150825289e-07  -1.9997010254737590e-17  6.8740553322378275e-07  1.4301204109539971e-06  2.2016474054148701e-06  2.9735824474002681e-06  3.7166928746261366e-06  4.4020352458683860e-06  5.0020698529648945e-06  5.4917291127427158e-06  5.8493987139380993e-06  6.0577736659522399e-06  6.1045561220360902e-06  5.9829678487697382e-06  5.6920572574164526e-06  5.2367887321220496e-06  4.6279102870244766e-06  3.8816040435104515e-06  3.0189323188582872e-06  2.0650999432793288e-06  1.0485604759035786e-06  0.0000000000000000e+00  0.0000000000000000e+00  -5.5829524830903789e-07  -1.0879470125016147e-06  -1.5621922596337041e-06  -1.9565169305198542e-06  -2.2496581079825625e-06  -2.4244795810156648e-06  -2.4686866354545790e-06  -2.3753520965420198e-06  -2.1432329217189154e-06  -1.7768647139138603e-06  -1.2864300866141759e-06  -6.8740553326492992e-07  -2.1166241330921678e-17  7.5159359580465619e-07  1.5401054282008191e-06  2.3362197915686438e-06  3.1096906677133959e-06  3.8304990989822439e-06  4.4700079716806043e-06  5.0020698529651706e-06  5.4040452657440579e-06  5.6576921635064653e-06  5.7498922515595937e-06  5.6731860062791198e-06  5.4260955326240320e-06  5.0132224939718262e-06  4.4451169383722407e-06  3.7379216039279783e-06  2.9128048791443284e-06  1.9952036936581884e-06  1.0139049103861724e-06  0.0000000000000000e+00  0.0000000000000000e+00  -6.4899195684561945e-07  -1.2679197149865119e-06  -1.8286282649243723e-06  -2.3052772671278571e-06  -2.6753753101328299e-06  -2.9206844199373891e-06  -3.0279596983184554e-06  -2.9894953160635324e-06  -2.8034555429468649e-06  -2.4739777730288636e-06  -2.0110432835381479e-06  -1.4301204109958763e-06  -7.5159359584774021e-07  -2.1923637980702092e-17  7.9689717637453528e-07  1.6091632475849861e-06  2.4058340854636665e-06  3.1561018767727767e-06  3.8304990989825454e-06  4.4020352458689603e-06  4.8472426060732952e-06  5.1470908471809057e-06  5.2877351529997113e-06  5.2610690115880889e-06  5.0650602133856655e-06  4.7038569072368520e-06  4.1876593603064020e-06  3.5323620395225044e-06  2.7589794341093663e-06  1.8928773338619081e-06  9.6283874738239617e-07  0.0000000000000000e+00  0.0000000000000000e+00  -7.3788488281718283e-07  -1.4445476244927492e-06  -2.0906686016749316e-06  -2.6492868463901952e-06  -3.0968568805709318e-06  -3.4141738956892198e-06  -3.5871315357465766e-06  -3.6072829829564146e-06  -3.4721836126578276e-06  -3.1855018860976139e-06  -2.7568940637491659e-06  -2.2016474054570608e-06  -1.5401054282442219e-06  -7.9689717641870540e-07  -2.2246747278980506e-17  8.2032825265223178e-07  1.6327066907129889e-06  2.4058340854639862e-06  3.1096906677140142e-06  3.7166928746270205e-06  4.2027566877355794e-06  4.5482286910835529e-06  4.7386490351138776e-06  4.7653169243132124e-06  4.6256368085267570e-06  4.3232318597851030e-06  3.8678202367914775e-06  3.2748587363308570e-06  2.5649673562266365e-06  1.7631567056749445e-06  8.9788777241491043e-07  0.0000000000000000e+00  0.0000000000000000e+00  -8.2189033708066677e-07  -1.6116967630529626e-06  -2.3391946516709333e-06  -2.9765394932411518e-06  -3.4993363892465775e-06  -3.8875772430023374e-06  -4.1264096261847006e-06  -4.2067077738184312e-06  -4.1254237667416870e-06  -3.8857054075719528e-06  -3.4967762589711938e-06  -2.9735824474423551e-06  -2.3362197916119382e-06  -1.6091632476290443e-06  -8.2032825269661080e-07  -2.2131534161231368e-17  8.2032825265256096e-07  1.6091632475856320e-06  2.3362197915695815e-06  2.9735824474014616e-06  3.4967762589321578e-06  3.8857054075351501e-06  4.1254237667074719e-06  4.2067077737871325e-06  4.1264096261566206e-06  3.8875772429777472e-06  3.4993363892257130e-06  2.9765394932242141e-06  2.3391946516580851e-06  1.6116967630443280e-06  8.2189033707632848e-07  0.0000000000000000e+00  0.0000000000000000e+00  -8.9788777241922680e-07  -1.7631567056835360e-06  -2.5649673562394204e-06  -3.2748587363477108e-06  -3.8678202368122383e-06  -4.3232318598095721e-06  -4.6256368085546981e-06  -4.7653169243443561e-06  -4.7386490351479249e-06  -4.5482286911201761e-06  -4.2027566877744252e-06  -3.7166928746677149e-06  -3.1096906677561651e-06  -2.4058340855071887e-06  -1.6327066907568260e-06  -8.2032825269628162e-07  -2.1591477210516735e-17  7.9689717637550100e-07  1.5401054282020674e-06  2.2016474054163626e-06  2.7568940637103159e-06  3.1855018860609856e-06  3.4721836126237735e-06  3.6072829829252637e-06  3.5871315357186292e-06  3.4141738956647448e-06  3.0968568805501651e-06  2.6492868463733363e-06  2.0906686016621431e-06  1.4445476244841544e-06  7.3788488281286466e-07  0.0000000000000000e+00  0.0000000000000000e+00  -9.6283874738664933e-07  -1.8928773338703737e-06  -2.7589794341219629e-06  -3.5323620395391114e-06  -4.1876593603268604e-06  -4.7038569072609637e-06  -5.0650602134131992e-06  -5.2610690116187794e-06  -5.2877351530332631e-06  -5.1470908472169960e-06  -4.8472426061115768e-06  -4.4020352459090639e-06  -3.8304990990240856e-06  -3.1561018768153528e-06  -2.4058340855068689e-06  -1.6091632476283987e-06  -7.9689717641773978e-07  -2.0656670937672441e-17  7.5159359580619409e-07  1.4301204109557645e-06  2.0110432834998573e-06  2.4739777729927622e-06  2.8034555429133012e-06  2.9894953160328292e-06  3.0279596982909090e-06  2.9206844199132652e-06  2.6753753101123605e-06  2.3052772671112391e-06  1.8286282649117666e-06  1.2679197149780398e-06  6.4899195684136290e-07  0.0000000000000000e+00  0.0000000000000000e+00  -1.0139049103903214e-06  -1.9952036936664465e-06  -2.9128048791566167e-06  -3.7379216039441791e-06  -4.4451169383921977e-06  -5.0132224939953491e-06  -5.4260955326508931e-06  -5.6731860063090607e-06  -5.7498922515923265e-06  -5.6576921635416756e-06  -5.4040452657814061e-06  -5.0020698530042976e-06  -4.4700079717211331e-06  -3.8304990990237841e-06  -3.1096906677555472e-06  -2.3362197916110005e-06  -1.5401054282429736e-06  -7.5159359584620231e-07  -1.9371323540078662e-17  6.8740553322579149e-07  1.2864300865768137e-06  1.7768647138786341e-06  2.1432329216861648e-06  2.3753520965120598e-06  2.4686866354276992e-06  2.4244795809921241e-06  2.2496581079625873e-06  1.9565169305036378e-06  1.5621922596214029e-06  1.0879470124933472e-06  5.5829524830488393e-07  0.0000000000000000e+00  0.0000000000000000e+00  -1.0485604759075834e-06  -2.0650999432873003e-06  -3.0189323188701486e-06  -3.8816040435260894e-06  -4.6279102870437416e-06  -5.2367887321447569e-06  -5.6920572574423828e-06  -5.9829678487986415e-06  -6.1045561220676896e-06  -6.0577736659862313e-06  -5.8493987139741550e-06  -5.4917291127804892e-06  -5.0020698530040223e-06  -4.4020352459084905e-06  -3.7166928746668315e-06  -2.9735824474411620e-06  -2.2016474054555692e-06  -1.4301204109941088e-06  -6.8740553326292128e-07  -1.7791130427423341e-17  6.0850321147217913e-07  1.1182938473306571e-06  1.5140704536978606e-06  1.7855865148148005e-06  1.9279960816695606e-06  1.9419860769153734e-06  1.8336907052995871e-06  1.6143918123360312e-06  1.3000172940469837e-06  9.1045745001637021e-07  4.6872619180941488e-07  0.0000000000000000e+00  0.0000000000000000e+00  -1.0646948592017220e-06  -2.0983537596239149e-06  -3.0710693827811200e-06  -3.9550719788987141e-06  -4.7257060444923496e-06  -5.3622900129677708e-06  -5.8488267162652041e-06  -6.1745381340407876e-06  -6.3342046916025805e-06  -6.3282968423672034e-06  -6.1628945942092599e-06  -5.8493987139739119e-06  -5.4040452657808911e-06  -4.8472426061107704e-06  -4.2027566877733190e-06  -3.4967762589697907e-06  -2.7568940637474795e-06  -2.0110432835362018e-06  -1.2864300866120054e-06  -6.0850321150590290e-07  -1.5980462138775784e-17  5.1989472568698239e-07  9.3624496260254586e-07  1.2388886628463520e-06  1.4227720112604666e-06  1.4880805460223559e-06  1.4401626854929186e-06  1.2892492497373122e-06  1.0499804449736713e-06  7.4075921087368793e-07  3.8295652905795097e-07  0.0000000000000000e+00  0.0000000000000000e+00  -1.0607014995150152e-06  -2.0917532934572050e-06  -3.0644062950624991e-06  -3.9519319913308366e-06  -4.7305494545299816e-06  -5.3802418579863253e-06  -5.8854320284832460e-06  -6.2354920263624093e-06  -6.4250681134436949e-06  -6.4542095144499223e-06  -6.3282968423669950e-06  -6.0577736659857832e-06  -5.6576921635409641e-06  -5.1470908472160050e-06  -4.5482286911188988e-06  -3.8857054075703934e-06  -3.1855018860957885e-06  -2.4739777730267968e-06  -1.7768647139115880e-06  -1.1182938473622347e-06  -5.1989472571690827e-07  -1.4009599983949297e-17  4.2701394592327552e-07  7.5122553466805603e-07  9.6748708694616270e-07  1.0755528107447500e-06  1.0800114380963261e-06  9.9002682016309528e-07  8.1889721517622305e-07  5.8345100579409492e-07  3.0330289383845672e-07  0.0000000000000000e+00  0.0000000000000000e+00  -1.0355494225769880e-06  -2.0432297947832590e-06  -2.9958284321321549e-06  -3.8680153789358187e-06  -4.6372110102149865e-06  -5.2843505801463847e-06  -5.7945173665395768e-06  -6.1574211703107061e-06  -6.3677048507464178e-06  -6.4250681134435246e-06  -6.3342046916022053e-06  -6.1045561220670840e-06  -5.7498922515914693e-06  -5.2877351530321408e-06  -4.7386490351465332e-06  -4.1254237667400327e-06  -3.4721836126559256e-06  -2.8034555429447418e-06  -2.1432329217166059e-06  -1.5140704537270297e-06  -9.3624496263018783e-07  -4.2701394594915518e-07  -1.1951422967925868e-17  3.3527571772720097e-07  5.7369363121218873e-07  7.1465860462056862e-07  7.6204150813518612e-07  7.2394250488401672e-07  6.1228597033473925e-07  4.4226346005326815e-07  2.3164700384983389e-07  0.0000000000000000e+00  0.0000000000000000e+00  -9.8883475529701352e-07  -1.9519603383588256e-06  -2.8640695175181234e-06  -3.7015806856099014e-06  -4.4434368175090403e-06  -5.0718096276365213e-06  -5.5726830645857195e-06  -5.9362949765484697e-06  -6.1574211703105731e-06  -6.2354920263621095e-06  -6.1745381340402929e-06  -5.9829678487979275e-06  -5.6731860063081104e-06  -5.2610690116175817e-06  -4.7653169243429110e-06  -4.2067077738167439e-06  -3.6072829829545024e-06  -2.9894953160614199e-06  -2.3753520965397409e-06  -1.7855865148413234e-06  -1.2388886628714854e-06  -7.5122553469158650e-07  -3.3527571774893324e-07  -9.8791826407289666e-18  2.4963618