<?xml version="1.0"?>
<VTKFile type="UnstructuredGrid"  version="0.1"  >
<UnstructuredGrid>
<Piece  NumberOfPoints="1089" NumberOfCells="2048">
<Points>
<DataArray  type="Float64"  NumberOfComponents="3"  format="ascii">0 0 0  0.03125 0 0  0.0625 0 0  0.09375 0 0  0.125 0 0  0.15625 0 0  0.1875 0 0  0.21875 0 0  0.25 0 0  0.28125 0 0  0.3125 0 0  0.34375 0 0  0.375 0 0  0.40625 0 0  0.4375 0 0  0.46875 0 0  0.5 0 0  0.53125 0 0  0.5625 0 0  0.59375 0 0  0.625 0 0  0.65625 0 0  0.6875 0 0  0.71875 0 0  0.75 0 0  0.78125 0 0  0.8125 0 0  0.84375 0 0  0.875 0 0  0.90625 0 0  0.9375 0 0  0.96875 0 0  1 0 0  0 0.03125 0  0.03125 0.03125 0  0.0625 0.03125 0  0.09375 0.03125 0  0.125 0.03125 0  0.15625 0.03125 0  0.1875 0.03125 0  0.21875 0.03125 0  0.25 0.03125 0  0.28125 0.03125 0  0.3125 0.03125 0  0.34375 0.03125 0  0.375 0.03125 0  0.40625 0.03125 0  0.4375 0.03125 0  0.46875 0.03125 0  0.5 0.03125 0  0.53125 0.03125 0  0.5625 0.03125 0  0.59375 0.03125 0  0.625 0.03125 0  0.65625 0.03125 0  0.6875 0.03125 0  0.71875 0.03125 0  0.75 0.03125 0  0.78125 0.03125 0  0.8125 0.03125 0  0.84375 0.03125 0  0.875 0.03125 0  0.90625 0.03125 0  0.9375 0.03125 0  0.96875 0.03125 0  1 0.03125 0  0 0.0625 0  0.03125 0.0625 0  0.0625 0.0625 0  0.09375 0.0625 0  0.125 0.0625 0  0.15625 0.0625 0  0.1875 0.0625 0  0.21875 0.0625 0  0.25 0.0625 0  0.28125 0.0625 0  0.3125 0.0625 0  0.34375 0.0625 0  0.375 0.0625 0  0.40625 0.0625 0  0.4375 0.0625 0  0.46875 0.0625 0  0.5 0.0625 0  0.53125 0.0625 0  0.5625 0.0625 0  0.59375 0.0625 0  0.625 0.0625 0  0.65625 0.0625 0  0.6875 0.0625 0  0.71875 0.0625 0  0.75 0.0625 0  0.78125 0.0625 0  0.8125 0.0625 0  0.84375 0.0625 0  0.875 0.0625 0  0.90625 0.0625 0  0.9375 0.0625 0  0.96875 0.0625 0  1 0.0625 0  0 0.09375 0  0.03125 0.09375 0  0.0625 0.09375 0  0.09375 0.09375 0  0.125 0.09375 0  0.15625 0.09375 0  0.1875 0.09375 0  0.21875 0.09375 0  0.25 0.09375 0  0.28125 0.09375 0  0.3125 0.09375 0  0.34375 0.09375 0  0.375 0.09375 0  0.40625 0.09375 0  0.4375 0.09375 0  0.46875 0.09375 0  0.5 0.09375 0  0.53125 0.09375 0  0.5625 0.09375 0  0.59375 0.09375 0  0.625 0.09375 0  0.65625 0.09375 0  0.6875 0.09375 0  0.71875 0.09375 0  0.75 0.09375 0  0.78125 0.09375 0  0.8125 0.09375 0  0.84375 0.09375 0  0.875 0.09375 0  0.90625 0.09375 0  0.9375 0.09375 0  0.96875 0.09375 0  1 0.09375 0  0 0.125 0  0.03125 0.125 0  0.0625 0.125 0  0.09375 0.125 0  0.125 0.125 0  0.15625 0.125 0  0.1875 0.125 0  0.21875 0.125 0  0.25 0.125 0  0.28125 0.125 0  0.3125 0.125 0  0.34375 0.125 0  0.375 0.125 0  0.40625 0.125 0  0.4375 0.125 0  0.46875 0.125 0  0.5 0.125 0  0.53125 0.125 0  0.5625 0.125 0  0.59375 0.125 0  0.625 0.125 0  0.65625 0.125 0  0.6875 0.125 0  0.71875 0.125 0  0.75 0.125 0  0.78125 0.125 0  0.8125 0.125 0  0.84375 0.125 0  0.875 0.125 0  0.90625 0.125 0  0.9375 0.125 0  0.96875 0.125 0  1 0.125 0  0 0.15625 0  0.03125 0.15625 0  0.0625 0.15625 0  0.09375 0.15625 0  0.125 0.15625 0  0.15625 0.15625 0  0.1875 0.15625 0  0.21875 0.15625 0  0.25 0.15625 0  0.28125 0.15625 0  0.3125 0.15625 0  0.34375 0.15625 0  0.375 0.15625 0  0.40625 0.15625 0  0.4375 0.15625 0  0.46875 0.15625 0  0.5 0.15625 0  0.53125 0.15625 0  0.5625 0.15625 0  0.59375 0.15625 0  0.625 0.15625 0  0.65625 0.15625 0  0.6875 0.15625 0  0.71875 0.15625 0  0.75 0.15625 0  0.78125 0.15625 0  0.8125 0.15625 0  0.84375 0.15625 0  0.875 0.15625 0  0.90625 0.15625 0  0.9375 0.15625 0  0.96875 0.15625 0  1 0.15625 0  0 0.1875 0  0.03125 0.1875 0  0.0625 0.1875 0  0.09375 0.1875 0  0.125 0.1875 0  0.15625 0.1875 0  0.1875 0.1875 0  0.21875 0.1875 0  0.25 0.1875 0  0.28125 0.1875 0  0.3125 0.1875 0  0.34375 0.1875 0  0.375 0.1875 0  0.40625 0.1875 0  0.4375 0.1875 0  0.46875 0.1875 0  0.5 0.1875 0  0.53125 0.1875 0  0.5625 0.1875 0  0.59375 0.1875 0  0.625 0.1875 0  0.65625 0.1875 0  0.6875 0.1875 0  0.71875 0.1875 0  0.75 0.1875 0  0.78125 0.1875 0  0.8125 0.1875 0  0.84375 0.1875 0  0.875 0.1875 0  0.90625 0.1875 0  0.9375 0.1875 0  0.96875 0.1875 0  1 0.1875 0  0 0.21875 0  0.03125 0.21875 0  0.0625 0.21875 0  0.09375 0.21875 0  0.125 0.21875 0  0.15625 0.21875 0  0.1875 0.21875 0  0.21875 0.21875 0  0.25 0.21875 0  0.28125 0.21875 0  0.3125 0.21875 0  0.34375 0.21875 0  0.375 0.21875 0  0.40625 0.21875 0  0.4375 0.21875 0  0.46875 0.21875 0  0.5 0.21875 0  0.53125 0.21875 0  0.5625 0.21875 0  0.59375 0.21875 0  0.625 0.21875 0  0.65625 0.21875 0  0.6875 0.21875 0  0.71875 0.21875 0  0.75 0.21875 0  0.78125 0.21875 0  0.8125 0.21875 0  0.84375 0.21875 0  0.875 0.21875 0  0.90625 0.21875 0  0.9375 0.21875 0  0.96875 0.21875 0  1 0.21875 0  0 0.25 0  0.03125 0.25 0  0.0625 0.25 0  0.09375 0.25 0  0.125 0.25 0  0.15625 0.25 0  0.1875 0.25 0  0.21875 0.25 0  0.25 0.25 0  0.28125 0.25 0  0.3125 0.25 0  0.34375 0.25 0  0.375 0.25 0  0.40625 0.25 0  0.4375 0.25 0  0.46875 0.25 0  0.5 0.25 0  0.53125 0.25 0  0.5625 0.25 0  0.59375 0.25 0  0.625 0.25 0  0.65625 0.25 0  0.6875 0.25 0  0.71875 0.25 0  0.75 0.25 0  0.78125 0.25 0  0.8125 0.25 0  0.84375 0.25 0  0.875 0.25 0  0.90625 0.25 0  0.9375 0.25 0  0.96875 0.25 0  1 0.25 0  0 0.28125 0  0.03125 0.28125 0  0.0625 0.28125 0  0.09375 0.28125 0  0.125 0.28125 0  0.15625 0.28125 0  0.1875 0.28125 0  0.21875 0.28125 0  0.25 0.28125 0  0.28125 0.28125 0  0.3125 0.28125 0  0.34375 0.28125 0  0.375 0.28125 0  0.40625 0.28125 0  0.4375 0.28125 0  0.46875 0.28125 0  0.5 0.28125 0  0.53125 0.28125 0  0.5625 0.28125 0  0.59375 0.28125 0  0.625 0.28125 0  0.65625 0.28125 0  0.6875 0.28125 0  0.71875 0.28125 0  0.75 0.28125 0  0.78125 0.28125 0  0.8125 0.28125 0  0.84375 0.28125 0  0.875 0.28125 0  0.90625 0.28125 0  0.9375 0.28125 0  0.96875 0.28125 0  1 0.28125 0  0 0.3125 0  0.03125 0.3125 0  0.0625 0.3125 0  0.09375 0.3125 0  0.125 0.3125 0  0.15625 0.3125 0  0.1875 0.3125 0  0.21875 0.3125 0  0.25 0.3125 0  0.28125 0.3125 0  0.3125 0.3125 0  0.34375 0.3125 0  0.375 0.3125 0  0.40625 0.3125 0  0.4375 0.3125 0  0.46875 0.3125 0  0.5 0.3125 0  0.53125 0.3125 0  0.5625 0.3125 0  0.59375 0.3125 0  0.625 0.3125 0  0.65625 0.3125 0  0.6875 0.3125 0  0.71875 0.3125 0  0.75 0.3125 0  0.78125 0.3125 0  0.8125 0.3125 0  0.84375 0.3125 0  0.875 0.3125 0  0.90625 0.3125 0  0.9375 0.3125 0  0.96875 0.3125 0  1 0.3125 0  0 0.34375 0  0.03125 0.34375 0  0.0625 0.34375 0  0.09375 0.34375 0  0.125 0.34375 0  0.15625 0.34375 0  0.1875 0.34375 0  0.21875 0.34375 0  0.25 0.34375 0  0.28125 0.34375 0  0.3125 0.34375 0  0.34375 0.34375 0  0.375 0.34375 0  0.40625 0.34375 0  0.4375 0.34375 0  0.46875 0.34375 0  0.5 0.34375 0  0.53125 0.34375 0  0.5625 0.34375 0  0.59375 0.34375 0  0.625 0.34375 0  0.65625 0.34375 0  0.6875 0.34375 0  0.71875 0.34375 0  0.75 0.34375 0  0.78125 0.34375 0  0.8125 0.34375 0  0.84375 0.34375 0  0.875 0.34375 0  0.90625 0.34375 0  0.9375 0.34375 0  0.96875 0.34375 0  1 0.34375 0  0 0.375 0  0.03125 0.375 0  0.0625 0.375 0  0.09375 0.375 0  0.125 0.375 0  0.15625 0.375 0  0.1875 0.375 0  0.21875 0.375 0  0.25 0.375 0  0.28125 0.375 0  0.3125 0.375 0  0.34375 0.375 0  0.375 0.375 0  0.40625 0.375 0  0.4375 0.375 0  0.46875 0.375 0  0.5 0.375 0  0.53125 0.375 0  0.5625 0.375 0  0.59375 0.375 0  0.625 0.375 0  0.65625 0.375 0  0.6875 0.375 0  0.71875 0.375 0  0.75 0.375 0  0.78125 0.375 0  0.8125 0.375 0  0.84375 0.375 0  0.875 0.375 0  0.90625 0.375 0  0.9375 0.375 0  0.96875 0.375 0  1 0.375 0  0 0.40625 0  0.03125 0.40625 0  0.0625 0.40625 0  0.09375 0.40625 0  0.125 0.40625 0  0.15625 0.40625 0  0.1875 0.40625 0  0.21875 0.40625 0  0.25 0.40625 0  0.28125 0.40625 0  0.3125 0.40625 0  0.34375 0.40625 0  0.375 0.40625 0  0.40625 0.40625 0  0.4375 0.40625 0  0.46875 0.40625 0  0.5 0.40625 0  0.53125 0.40625 0  0.5625 0.40625 0  0.59375 0.40625 0  0.625 0.40625 0  0.65625 0.40625 0  0.6875 0.40625 0  0.71875 0.40625 0  0.75 0.40625 0  0.78125 0.40625 0  0.8125 0.40625 0  0.84375 0.40625 0  0.875 0.40625 0  0.90625 0.40625 0  0.9375 0.40625 0  0.96875 0.40625 0  1 0.40625 0  0 0.4375 0  0.03125 0.4375 0  0.0625 0.4375 0  0.09375 0.4375 0  0.125 0.4375 0  0.15625 0.4375 0  0.1875 0.4375 0  0.21875 0.4375 0  0.25 0.4375 0  0.28125 0.4375 0  0.3125 0.4375 0  0.34375 0.4375 0  0.375 0.4375 0  0.40625 0.4375 0  0.4375 0.4375 0  0.46875 0.4375 0  0.5 0.4375 0  0.53125 0.4375 0  0.5625 0.4375 0  0.59375 0.4375 0  0.625 0.4375 0  0.65625 0.4375 0  0.6875 0.4375 0  0.71875 0.4375 0  0.75 0.4375 0  0.78125 0.4375 0  0.8125 0.4375 0  0.84375 0.4375 0  0.875 0.4375 0  0.90625 0.4375 0  0.9375 0.4375 0  0.96875 0.4375 0  1 0.4375 0  0 0.46875 0  0.03125 0.46875 0  0.0625 0.46875 0  0.09375 0.46875 0  0.125 0.46875 0  0.15625 0.46875 0  0.1875 0.46875 0  0.21875 0.46875 0  0.25 0.46875 0  0.28125 0.46875 0  0.3125 0.46875 0  0.34375 0.46875 0  0.375 0.46875 0  0.40625 0.46875 0  0.4375 0.46875 0  0.46875 0.46875 0  0.5 0.46875 0  0.53125 0.46875 0  0.5625 0.46875 0  0.59375 0.46875 0  0.625 0.46875 0  0.65625 0.46875 0  0.6875 0.46875 0  0.71875 0.46875 0  0.75 0.46875 0  0.78125 0.46875 0  0.8125 0.46875 0  0.84375 0.46875 0  0.875 0.46875 0  0.90625 0.46875 0  0.9375 0.46875 0  0.96875 0.46875 0  1 0.46875 0  0 0.5 0  0.03125 0.5 0  0.0625 0.5 0  0.09375 0.5 0  0.125 0.5 0  0.15625 0.5 0  0.1875 0.5 0  0.21875 0.5 0  0.25 0.5 0  0.28125 0.5 0  0.3125 0.5 0  0.34375 0.5 0  0.375 0.5 0  0.40625 0.5 0  0.4375 0.5 0  0.46875 0.5 0  0.5 0.5 0  0.53125 0.5 0  0.5625 0.5 0  0.59375 0.5 0  0.625 0.5 0  0.65625 0.5 0  0.6875 0.5 0  0.71875 0.5 0  0.75 0.5 0  0.78125 0.5 0  0.8125 0.5 0  0.84375 0.5 0  0.875 0.5 0  0.90625 0.5 0  0.9375 0.5 0  0.96875 0.5 0  1 0.5 0  0 0.53125 0  0.03125 0.53125 0  0.0625 0.53125 0  0.09375 0.53125 0  0.125 0.53125 0  0.15625 0.53125 0  0.1875 0.53125 0  0.21875 0.53125 0  0.25 0.53125 0  0.28125 0.53125 0  0.3125 0.53125 0  0.34375 0.53125 0  0.375 0.53125 0  0.40625 0.53125 0  0.4375 0.53125 0  0.46875 0.53125 0  0.5 0.53125 0  0.53125 0.53125 0  0.5625 0.53125 0  0.59375 0.53125 0  0.625 0.53125 0  0.65625 0.53125 0  0.6875 0.53125 0  0.71875 0.53125 0  0.75 0.53125 0  0.78125 0.531
[...]
<PointData  Scalars="phi"> 
<DataArray  type="Float64"  Name="phi"  format="ascii">0.0000000000000000e+00  0.0000000000000000e+00  0.0000000000000000e+00  0.0000000000000000e+00  0.0000000000000000e+00  0.0000000000000000e+00  0.0000000000000000e+00  0.0000000000000000e+00  0.0000000000000000e+00  0.0000000000000000e+00  0.0000000000000000e+00  0.0000000000000000e+00  0.0000000000000000e+00  0.0000000000000000e+00  0.0000000000000000e+00  0.0000000000000000e+00  0.0000000000000000e+00  0.0000000000000000e+00  0.0000000000000000e+00  0.0000000000000000e+00  0.0000000000000000e+00  0.0000000000000000e+00  0.0000000000000000e+00  0.0000000000000000e+00  0.0000000000000000e+00  0.0000000000000000e+00  0.0000000000000000e+00  0.0000000000000000e+00  0.0000000000000000e+00  0.0000000000000000e+00  0.0000000000000000e+00  0.0000000000000000e+00  0.0000000000000000e+00  0.0000000000000000e+00  -3.8045287007609353e-20  3.5264940075530823e-11  1.3895243855320280e-10  3.4076398699945321e-10  6.6553642045139963e-10  1.1320069520815731e-09  1.7518144553280876e-09  2.5287831628753617e-09  3.4585212554427311e-09  4.5283534332809728e-09  5.7175930345685772e-09  6.9981457582754484e-09  8.3354239470427368e-09  9.6895381340696200e-09  1.1016721602213000e-08  1.2270934453394969e-08  1.3405586493485809e-08  1.4375313378672078e-08  1.5137738133853178e-08  1.5655150437840593e-08  1.5896038973619048e-08  1.5836417570692539e-08  1.5460893643060268e-08  1.4763437310579652e-08  1.3747821323054483e-08  1.2427715296873842e-08  1.0826432933084709e-08  8.9763488480101872e-09  6.9180263008390138e-09  4.6991416736878637e-09  2.3734021583713031e-09  0.0000000000000000e+00  0.0000000000000000e+00  -3.5264940226842158e-11  -1.5048444569878376e-19  1.7203010804752678e-10  5.4024411145214689e-10  1.1544019773069884e-09  2.0521299244881969e-09  3.2569226866156039e-09  4.7767104406890919e-09  6.6030535758030987e-09  8.7110028255786301e-09  1.1059635710601275e-08  1.3593253488394133e-08  1.6243196782664599e-08  1.8930213694795057e-08  2.1567292393097665e-08  2.4062851752715846e-08  2.6324169284448704e-08  2.8260915896475988e-08  2.9788662357679184e-08  3.0832222865684115e-08  3.1328706863883292e-08  3.1230161006842316e-08  3.0505698575793024e-08  2.9143033184991323e-08  2.7149356695651823e-08  2.4551527273002370e-08  2.1395562071455433e-08  1.7745460207731461e-08  1.3681416606648430e-08  9.2975283598921149e-09  4.6991416736878770e-09  0.0000000000000000e+00  0.0000000000000000e+00  -1.3895243877817708e-10  -1.7203010849508126e-10  -3.3279958883163684e-19  4.6629590449180917e-10  1.3016698774812964e-09  2.5628804631050740e-09  4.2856421277306704e-09  6.4824786742223217e-09  9.1415127655377700e-09  1.2226246736040627e-08  1.5676350768470618e-08  1.9409434913101833e-08  2.3323742787062579e-08  2.7301668563203862e-08  3.1213966410541107e-08  3.4924494119620694e-08  3.8295311288571615e-08  4.1191937983827616e-08  4.3488572788026749e-08  4.5073069889107424e-08  4.5851483340446778e-08  4.5752002535144238e-08  4.4728125719740947e-08  4.2760947214382247e-08  3.9860467902320893e-08  3.6065876356396809e-08  3.1444788446954821e-08  2.6091475060008269e-08  2.0124148748901430e-08  1.3681416606648496e-08  6.9180263008390684e-09  0.0000000000000000e+00  0.0000000000000000e+00  -3.4076398729583476e-10  -5.4024411204181045e-10  -4.6629590536881284e-10  -5.7780756856045731e-19  9.5866667111306272e-10  2.4859113365189497e-09  4.6301577768357249e-09  7.4091946116678701e-09  1.0808560003795078e-08  1.4781235000205469e-08  1.9248666547583932e-08  2.4103089204405845e-08  2.9211063724356599e-08  3.4418102957567938e-08  3.9554212737844126e-08  4.4440139239430731e-08  4.8894086090153702e-08  5.2738645409766485e-08  5.5807677648498171e-08  5.7952876002553476e-08  5.9049762264380218e-08  5.9002881823250453e-08  5.7749995393335829e-08  5.5265102798286649e-08  5.1560178365789044e-08  4.6685546493747343e-08  4.0728877778234500e-08  3.3812838392305336e-08  2.6091475060008451e-08  1.7745460207731669e-08  8.9763488480103196e-09  0.0000000000000000e+00  0.0000000000000000e+00  -6.6553642081624760e-10  -1.1544019780329155e-09  -1.3016698785610201e-09  -9.5866667253585887e-10  -8.7590572232189607e-19  1.6703445112153737e-09  4.1140829272416967e-09  7.3550902684592841e-09  1.1377383300959930e-08  1.6124717577470485e-08  2.1501824657097353e-08  2.7377251485792994e-08  3.3587701350779382e-08  3.9943717047428977e-08  4.6236494186877210e-08  5.2245567961243026e-08  5.7747081894157860e-08  6.2522323484635078e-08  6.6366200121924938e-08  6.9095329664826896e-08  7.0555433617193794e-08  7.0627746387532788e-08  6.9234190726346618e-08  6.6341115689265654e-08  6.1961447583668819e-08  5.6155164173779478e-08  4.9028065461050573e-08  4.0728877778234871e-08  3.1444788446955331e-08  2.1395562071455883e-08  1.0826432933084969e-08  0.0000000000000000e+00  0.0000000000000000e+00  -1.1320069525112870e-09  -2.0521299253432262e-09  -2.5628804643768721e-09  -2.4859113381949078e-09  -1.6703445132789498e-09  -1.2154435081853140e-18  2.6007643642614935e-09  6.1628391780014827e-09  1.0669950110398107e-08  1.6058149664788149e-08  2.2217244828104386e-08  2.8994116104542804e-08  3.6197809706652999e-08  4.3606215401817904e-08  5.0974080355774130e-08  5.8042056681815521e-08  6.4546439330166354e-08  7.0229223027777494e-08  7.4848093290464687e-08  7.8185967615922425e-08  8.0059718798351753e-08  8.0327742284829976e-08  7.8896072472125647e-08  7.5722807160192575e-08  7.0820662914045973e-08  6.4257554317601226e-08  5.6155164173780133e-08  4.6685546493748316e-08  3.6065876356397815e-08  2.4551527273003174e-08  1.2427715296874285e-08  0.0000000000000000e+00  0.0000000000000000e+00  -1.7518144558184413e-09  -3.2569226875913288e-09  -4.2856421291820415e-09  -4.6301577787483766e-09  -4.1140829295967692e-09  -2.6007643670358250e-09  -1.5831811946104095e-18  3.7271022460713714e-09  8.5653238955398553e-09  1.4444713718648601e-08  2.1242179526339014e-08  2.8785243573572702e-08  3.6857827038258499e-08  4.5207849889862075e-08  5.3556361431975824e-08  6.1607856627358088e-08  6.9061386321109114e-08  7.5622037487392038e-08  8.1012343879932155e-08  8.4983188583870909e-08  8.7323777914197690e-08  8.7870300201584453e-08  8.6512931940712478e-08  8.3200915658339035e-08  7.7945506281740043e-08  7.0820662914047005e-08  6.1961447583670434e-08  5.1560178365790864e-08  3.9860467902322574e-08  2.7149356695653103e-08  1.3747821323055167e-08  0.0000000000000000e+00  0.0000000000000000e+00  -2.5287831634215458e-09  -4.7767104417759427e-09  -6.4824786758390355e-09  -7.4091946137984673e-09  -7.3550902710827718e-09  -6.1628391810920760e-09  -3.7271022495987491e-09  -1.9648102340205320e-18  5.0057120383823016e-09  1.1215899346053263e-08  1.8496776138654239e-08  2.6659049382172603e-08  3.5464329684847983e-08  4.4633571433953323e-08  5.3857225277738940e-08  6.2806718886310206e-08  7.1146829436540912e-08  7.8548475488168909e-08  8.4701438238858248e-08  8.9326523256596290e-08  9.2186693655922715e-08  9.3096743554022847e-08  9.1931135061020258e-08  8.8629690930222575e-08  8.3200915658340517e-08  7.5722807160195011e-08  6.6341115689268553e-08  5.5265102798289574e-08  4.2760947214384801e-08  2.9143033184993202e-08  1.4763437310580643e-08  0.0000000000000000e+00  0.0000000000000000e+00  -3.4585212560394001e-09  -6.6030535769904412e-09  -9.1415127673040074e-09  -1.0808560006122776e-08  -1.1377383303826172e-08  -1.0669950113774736e-08  -8.5653238993937593e-09  -5.0057120426757486e-09  -2.3455131149152425e-18  6.3753762551670226e-09  1.3978264554842147e-08  2.2605277681757310e-08  3.1998758852048127e-08  4.1855972332289561e-08  5.1840173314576369e-08  6.1593137611278818e-08  7.0748674225542496e-08  7.8946604603997349e-08  8.5846672907506007e-08  9.1141852703985125e-08  9.4570537063871520e-08  9.5927140303374089e-08  9.5070698993994018e-08  9.1931135061022243e-08  8.6512931940715866e-08  7.8896072472129869e-08  6.9234190726351118e-08  5.7749995393340097e-08  4.4728125719744554e-08  3.0505698575795625e-08  1.5460893643061628e-08  0.0000000000000000e+00  0.0000000000000000e+00  -4.5283534339223000e-09  -8.7110028268548689e-09  -1.2226246737939142e-08  -1.4781235002707540e-08  -1.6124717580551501e-08  -1.6058149668417854e-08  -1.4444713722791414e-08  -1.1215899350668636e-08  -6.3753762602098556e-09  -2.7105471222961417e-18  7.7620989221878928e-09  1.6696279149796356e-08  2.6528831708118969e-08  3.6936824440599585e-08  4.7559976167566764e-08  5.8014109923232710e-08  6.7905672604745592e-08  7.6846765999858199e-08  8.4470113059733109e-08  9.0443384275230268e-08  9.4482332071506282e-08  9.6362225381443270e-08  9.5927140303376617e-08  9.3096743554027294e-08  8.7870300201590170e-08  8.0327742284836342e-08  7.0627746387539167e-08  5.9002881823256296e-08  4.5752002535149069e-08  3.1230161006845751e-08  1.5836417570694319e-08  0.0000000000000000e+00  0.0000000000000000e+00  -5.7175930352483120e-09  -1.1059635711953970e-08  -1.5676350770482907e-08  -1.9248666550235993e-08  -2.1501824660363115e-08  -2.2217244831951798e-08  -2.1242179530730374e-08  -1.8496776143546579e-08  -1.3978264560187666e-08  -7.7620989279344488e-09  -3.0458152111047734e-18  9.0850356594026734e-09  1.9206576056571489e-08  3.0025149584683977e-08  4.1160803118175000e-08  5.2207344866494723e-08  6.2747728633882883e-08  7.2369991000976244e-08  8.0683130397240576e-08  8.7332317916671631e-08  9.2012854022864508e-08  9.4482332071509365e-08  9.4570537063877066e-08  9.2186693655930060e-08  8.7323777914206108e-08  8.0059718798360554e-08  7.0555433617202317e-08  5.9049762264387834e-08  4.5851483340452972e-08  3.1328706863887660e-08  1.5896038973621301e-08  0.0000000000000000e+00  0.0000000000000000e+00  -6.9981457589869792e-09  -1.3593253489810127e-08  -1.9409434915208321e-08  -2.4103089207182101e-08  -2.7377251489211742e-08  -2.8994116108570505e-08  -2.8785243578169904e-08  -2.6659049387294334e-08  -2.2605277687353540e-08  -1.6696279155812504e-08  -9.0850356657801582e-09  -3.3384123996476121e-18  1.0263058048293179e-08  2.1351892131447513e-08  3.2870895033910388e-08  4.4395990141412666e-08  5.5490729832399255e-08  6.5722984595054417e-08  7.4681582842989515e-08  8.1992262151944947e-08  8.7332317916675244e-08  9.0443384275236899e-08  9.1141852703994099e-08  8.9326523256606864e-08  8.4983188583882331e-08  7.8185967615933913e-08  6.9095329664837748e-08  5.7952876002563019e-08  4.5073069889115101e-08  3.0832222865689489e-08  1.5655150437843356e-08  0.0000000000000000e+00  0.0000000000000000e+00  -8.3354239477791559e-09  -1.6243196784130148e-08  -2.3323742789242816e-08  -2.9211063727230096e-08  -3.3587701354317922e-08  -3.6197809710821896e-08  -3.6857827043016918e-08  -3.5464329690149397e-08  -3.1998758857840753e-08  -2.6528831714346323e-08  -1.9206576063172937e-08  -1.0263058055204556e-08  -3.5771230968279710e-18  1.1221394547643736e-08  2.2993983389261791e-08  3.4880079051746679e-08  4.6428104372049346e-08  5.7189872231875842e-08  6.6737826631065356e-08  7.4681582842993592e-08  8.0683130397248212e-08  8.4470113059743657e-08  8.5846672907518712e-08  8.4701438238872317e-08  8.1012343879946779e-08  7.4848093290479033e-08  6.6366200121938265e-08  5.5807677648509745e-08  4.3488572788035987e-08  2.9788662357685610e-08  1.5137738133856470e-08  0.0000000000000000e+00  0.0000000000000000e+00  -9.6895381348237920e-09  -1.8930213696295960e-08  -2.7301668565436727e-08  -3.4418102960510835e-08  -3.9943717051053028e-08  -4.3606215406087605e-08  -4.5207849894735611e-08  -4.4633571439383055e-08  -4.1855972338222465e-08  -3.6936824446977822e-08  -3.0025149591445444e-08  -2.1351892138526501e-08  -1.1221394554971557e-08  -3.7528426495335002e-18  1.1897783163624980e-08  2.4025026019733820e-08  3.5919429922341667e-08  4.7121030032040270e-08  5.7189872231880309e-08  6.5722984595062900e-08  7.2369991000988182e-08  7.6846765999872890e-08  7.8946604604013972e-08  7.8548475488186631e-08  7.5622037487409984e-08  7.0229223027794792e-08  6.2522323484650934e-08  5.2738645409780130e-08  4.1191937983838435e-08  2.8260915896483485e-08  1.4375313378675911e-08  0.0000000000000000e+00  0.0000000000000000e+00  -1.1016721602977631e-08  -2.1567292394619406e-08  -3.1213966412805014e-08  -3.9554212740827965e-08  -4.6236494190551738e-08  -5.0974080360103348e-08  -5.3556361436917368e-08  -5.3857225283244495e-08  -5.1840173320592202e-08  -4.7559976174034211e-08  -4.1160803125031116e-08  -3.2870895041088549e-08  -2.2993983396692348e-08  -1.1897783171235968e-08  -3.8589256420369230e-18  1.2247612317416038e-08  2.4376532825908052e-08  3.5919429922346399e-08  4.6428104372058491e-08  5.5490729832412325e-08  6.2747728633899254e-08  6.7905672604764505e-08  7.0748674225563090e-08  7.1146829436562300e-08  6.9061386321130383e-08  6.4546439330186590e-08  5.7747081894176211e-08  4.8894086090169392e-08  3.8295311288583996e-08  2.6324169284457251e-08  1.3405586493490171e-08  0.0000000000000000e+00  0.0000000000000000e+00  -1.2270934454162681e-08  -2.4062851754243744e-08  -3.4924494121893786e-08  -4.4440139242426727e-08  -5.2245567964932569e-08  -5.8042056686162480e-08  -6.1607856632319940e-08  -6.2806718891838460e-08  -6.1593137617319526e-08  -5.8014109929726978e-08  -5.2207344873379341e-08  -4.4395990148620731e-08  -3.4880079059208265e-08  -2.4025026027376677e-08  -1.2247612325166282e-08  -3.8914254421397641e-18  1.2247612317420909e-08  2.4025026019743375e-08  3.4880079051760550e-08  4.4395990141430328e-08  5.2207344866515482e-08  5.8014109923255779e-08  6.1593137611303303e-08  6.2806718886335167e-08  6.1607856627382559e-08  5.8042056681838576e-08  5.2245567961263778e-08  4.4440139239448373e-08  3.4924494119634557e-08  2.4062851752725395e-08  1.2270934453399834e-08  0.0000000000000000e+00  0.0000000000000000e+00  -1.3405586494249210e-08  -2.6324169285968043e-08  -3.8295311290832008e-08  -4.8894086093133002e-08  -5.7747081897826890e-08  -6.4546439334489200e-08  -6.9061386326043505e-08  -7.1146829442038633e-08  -7.0748674231549892e-08  -6.7905672611204126e-08  -6.2747728640729688e-08  -5.5490729839567814e-08  -4.6428104379470116e-08  -3.5919429929942789e-08  -2.4376532833616048e-08  -1.2247612325161414e-08  -3.8492306570635829e-18  1.1897783163639265e-08  2.2993983389280261e-08  3.2870895033932464e-08  4.1160803118199961e-08  4.7559976167593776e-08  5.1840173314604506e-08  5.3857225277767229e-08  5.3556361432003286e-08  5.0974080355799785e-08  4.6236494186900159e-08  3.9554212737863549e-08  3.1213966410556327e-08  2.1567292393108117e-08  1.1016721602218322e-08  0.0000000000000000e+00  0.0000000000000000e+00  -1.4375313379423833e-08  -2.8260915897972169e-08  -4.1191937986053585e-08  -5.2738645412700461e-08  -6.2522323488248336e-08  -7.0229223032034682e-08  -7.5622037492251532e-08  -7.8548475493583250e-08  -7.8946604609913702e-08  -7.6846766006218927e-08  -7.2369991007719447e-08  -6.5722984602114569e-08  -5.7189872239184459e-08  -4.7121030039526586e-08  -3.5919429929938057e-08  -2.4025026027367125e-08  -1.1897783171221684e-08  -3.7340986069724885e-18  1.1221394547666488e-08  2.1351892131473665e-08  3.0025149584712776e-08  3.6936824440630164e-08  4.1855972332320968e-08  4.4633571433984570e-08  4.5207849889892151e-08  4.3606215401845836e-08  3.9943717047453839e-08  3.4418102957588909e-08  2.7301668563220240e-08  1.8930213694806293e-08  9.6895381340753342e-09  0.0000000000000000e+00  0.0000000000000000e+00  -1.5137738134586073e-08  -2.9788662359137861e-08  -4.3488572790196953e-08  -5.5807677651358680e-08  -6.6366200125447761e-08  -7.4848093294615386e-08  -8.1012343884670153e-08  -8.4701438244137275e-08  -8.5846672913274566e-08  -8.4470113065935018e-08  -8.0683130403815484e-08  -7.4681582849873524e-08  -6.6737826638191696e-08  -5.7189872239180005e-08  -4.6428104379460970e-08  -3.4880079059194395e-08  -2.2993983396673882e-08  -1.1221394554948806e-08  -3.5505668864958689e-18  1.0263058048322898e-08  1.9206576056603604e-08  2.6528831708152589e-08  3.1998758852082299e-08  3.5464329684881706e-08  3.6857827038290746e-08  3.6197809706682790e-08  3.3587701350805792e-08  2.9211063724378811e-08  2.3323742787079887e-08  1.6243196782676457e-08  8.3354239470487604e-09  0.0000000000000000e+00  0.0000000000000000e+00  -1.5655150438547621e-08  -3.0832222867091322e-08  -4.5073069891201085e-08  -5.7952876005313136e-08  -6.9095329668225576e-08  -7.8185967619926893e-08  -8.4983188588442055e-08  -8.9326523261689472e-08  -9.1141852709550688e-08  -9.0443384281213974e-08  -8.7332317923015286e-08  -8.1992262158586903e-08  -7.4681582849869448e-08  -6.5722984602106072e-08  -5.5490729839554745e-08  -4.4395990148603082e-08  -3.2870895041066480e-08  -2.1351892138500353e-08  -1.0263058055174837e-08  -3.3057751725018820e-18  9.0850356594374431e-09  1.6696279149832372e-08  2.2605277681793603e-08  2.6659049382208179e-08  2.8785243573606550e-08  2.8994116104573949e-08  2.7377251485820523e-08  2.4103089204428933e-08  1.9409434913119789e-08  1.3593253488406416e-08  6.9981457582816853e-09  0.0000000000000000e+00  0.0000000000000000e+00  -1.5896038974293448e-08  -3.1328706865225588e-08  -4.5851483342443896e-08  -5.9049762267012670e-08  -7.0555433620435852e-08  -8.0059718802171739e-08  -8.7323777918558309e-08  -9.2186693660781402e-08  -9.4570537069180882e-08  -9.4482332077214622e-08  -9.2012854028916280e-08  -8.7332317923011673e-08  -8.0683130403807847e-08  -7.2369991007707523e-08  -6.2747728640713330e-08  -5.2207344873358582e-08  -4.1160803125006162e-08  -3.0025149591416652e-08  -1.9206576063140825e-08  -9.0850356657453885e-09  -3.0091725622439370e-18  7.7620989222255278e-09  1.3978264554879825e-08  1.8496776138690973e-08  2.1242179526373815e-08  2.2217244828136302e-08  2.1501824657125480e-08  1.9248666547607481e-08  1.5676350768488905e-08  1.1059635710613770e-08  5.7175930345749175e-09  0.0000000000000000e+00  0.0000000000000000e+00  -1.5836417571327886e-08  -3.1230161008106903e-08  -4.5752002537025783e-08  -5.9002881825730599e-08  -7.0627746390587321e-08  -8.0327742288429072e-08  -8.7870300205692960e-08  -9.3096743558600690e-08  -9.5927140308376626e-08  -9.6362225386821784e-08  -9.4482332077211538e-08  -9.0443384281207356e-08  -8.4470113065924496e-08  -7.6846766006204263e-08  -6.7905672611185226e-08  -5.8014109929703916e-08  -4.7559976174007212e-08  -3.6936824446947250e-08  -2.6528831714312699e-08  -1.6696279155776492e-08  -7.7620989278968154e-09  -2.6721509294108141e-18  6.3753762552052582e-09  1.1215899346090382e-08  1.4444713718683645e-08  1.6058149664820194e-08  1.6124717577498669e-08  1.4781235000229020e-08  1.2226246736058893e-08  8.7110028255911007e-09  4.5283534332872974e-09  0.0000000000000000e+00  0.0000000000000000e+00  -1.5460893643650517e-08  -3.0505698576967879e-08  -4.4728125721489005e-08  -5.7749995395640069e-08  -6.9234190729184563e-08  -7.8896072475469574e-08  -8.6512931944529764e-08  -9.1931135065273674e-08  -9.5070698998642085e-08  -9.5927140308374098e-08  -9.4570537069175349e-08  -9.1141852709541728e-08  -8.5846672913261887e-08  -7.8946604609897105e-08  -7.0748674231529298e-08  -6.1593137617295042e-08  -5.1840173320564064e-08  -4.1855972338191058e-08  -3.1998758857806574e-08  -2.2605277687317240e-08  -1.3978264560149986e-08  -6.3753762601716200e-09  -2.3076029231143059e-18  5.0057120384189746e-09  8.5653238955743785e-09  1.0669950110429602e-08  1.1377383300987579e-08  1.0808560003818150e-08  9.1415127655556454e-09  6.6030535758152954e-09  3.4585212554489143e-09  0.0000000000000000e+00  0.0000000000000000e+00  -1.4763437311119202e-08  -2.9143033186065288e-08  -4.2760947215980227e-08  -5.5265102800393101e-08  -6.6341115691860037e-08  -7.5722807163249597e-08  -8.3200915661828850e-08  -8.8629690934111158e-08  -9.1931135065271702e-08  -9.3096743558596256e-08  -9.2186693660774070e-08  -8.9326523261678911e-08  -8.4701438244123219e-08  -7.8548475493565541e-08  -7.1146829442017245e-08  -6.2806718891813512e-08  -5.3857225283216212e-08  -4.4633571439351801e-08  -3.5464329690115675e-08  -2.6659049387258755e-08  -1.8496776143509839e-08  -1.1215899350631517e-08  -5.0057120426390756e-09  -1.9294368097310071e-18  3.7271022