<?xml version="1.0"?>
<VTKFile type="UnstructuredGrid"  version="0.1"  >
<UnstructuredGrid>
<Piece  NumberOfPoints="1089" NumberOfCells="2048">
<Points>
<DataArray  type="Float64"  NumberOfComponents="3"  format="ascii">0 0 0  0.03125 0 0  0.0625 0 0  0.09375 0 0  0.125 0 0  0.15625 0 0  0.1875 0 0  0.21875 0 0  0.25 0 0  0.28125 0 0  0.3125 0 0  0.34375 0 0  0.375 0 0  0.40625 0 0  0.4375 0 0  0.46875 0 0  0.5 0 0  0.53125 0 0  0.5625 0 0  0.59375 0 0  0.625 0 0  0.65625 0 0  0.6875 0 0  0.71875 0 0  0.75 0 0  0.78125 0 0  0.8125 0 0  0.84375 0 0  0.875 0 0  0.90625 0 0  0.9375 0 0  0.96875 0 0  1 0 0  0 0.03125 0  0.03125 0.03125 0  0.0625 0.03125 0  0.09375 0.03125 0  0.125 0.03125 0  0.15625 0.03125 0  0.1875 0.03125 0  0.21875 0.03125 0  0.25 0.03125 0  0.28125 0.03125 0  0.3125 0.03125 0  0.34375 0.03125 0  0.375 0.03125 0  0.40625 0.03125 0  0.4375 0.03125 0  0.46875 0.03125 0  0.5 0.03125 0  0.53125 0.03125 0  0.5625 0.03125 0  0.59375 0.03125 0  0.625 0.03125 0  0.65625 0.03125 0  0.6875 0.03125 0  0.71875 0.03125 0  0.75 0.03125 0  0.78125 0.03125 0  0.8125 0.03125 0  0.84375 0.03125 0  0.875 0.03125 0  0.90625 0.03125 0  0.9375 0.03125 0  0.96875 0.03125 0  1 0.03125 0  0 0.0625 0  0.03125 0.0625 0  0.0625 0.0625 0  0.09375 0.0625 0  0.125 0.0625 0  0.15625 0.0625 0  0.1875 0.0625 0  0.21875 0.0625 0  0.25 0.0625 0  0.28125 0.0625 0  0.3125 0.0625 0  0.34375 0.0625 0  0.375 0.0625 0  0.40625 0.0625 0  0.4375 0.0625 0  0.46875 0.0625 0  0.5 0.0625 0  0.53125 0.0625 0  0.5625 0.0625 0  0.59375 0.0625 0  0.625 0.0625 0  0.65625 0.0625 0  0.6875 0.0625 0  0.71875 0.0625 0  0.75 0.0625 0  0.78125 0.0625 0  0.8125 0.0625 0  0.84375 0.0625 0  0.875 0.0625 0  0.90625 0.0625 0  0.9375 0.0625 0  0.96875 0.0625 0  1 0.0625 0  0 0.09375 0  0.03125 0.09375 0  0.0625 0.09375 0  0.09375 0.09375 0  0.125 0.09375 0  0.15625 0.09375 0  0.1875 0.09375 0  0.21875 0.09375 0  0.25 0.09375 0  0.28125 0.09375 0  0.3125 0.09375 0  0.34375 0.09375 0  0.375 0.09375 0  0.40625 0.09375 0  0.4375 0.09375 0  0.46875 0.09375 0  0.5 0.09375 0  0.53125 0.09375 0  0.5625 0.09375 0  0.59375 0.09375 0  0.625 0.09375 0  0.65625 0.09375 0  0.6875 0.09375 0  0.71875 0.09375 0  0.75 0.09375 0  0.78125 0.09375 0  0.8125 0.09375 0  0.84375 0.09375 0  0.875 0.09375 0  0.90625 0.09375 0  0.9375 0.09375 0  0.96875 0.09375 0  1 0.09375 0  0 0.125 0  0.03125 0.125 0  0.0625 0.125 0  0.09375 0.125 0  0.125 0.125 0  0.15625 0.125 0  0.1875 0.125 0  0.21875 0.125 0  0.25 0.125 0  0.28125 0.125 0  0.3125 0.125 0  0.34375 0.125 0  0.375 0.125 0  0.40625 0.125 0  0.4375 0.125 0  0.46875 0.125 0  0.5 0.125 0  0.53125 0.125 0  0.5625 0.125 0  0.59375 0.125 0  0.625 0.125 0  0.65625 0.125 0  0.6875 0.125 0  0.71875 0.125 0  0.75 0.125 0  0.78125 0.125 0  0.8125 0.125 0  0.84375 0.125 0  0.875 0.125 0  0.90625 0.125 0  0.9375 0.125 0  0.96875 0.125 0  1 0.125 0  0 0.15625 0  0.03125 0.15625 0  0.0625 0.15625 0  0.09375 0.15625 0  0.125 0.15625 0  0.15625 0.15625 0  0.1875 0.15625 0  0.21875 0.15625 0  0.25 0.15625 0  0.28125 0.15625 0  0.3125 0.15625 0  0.34375 0.15625 0  0.375 0.15625 0  0.40625 0.15625 0  0.4375 0.15625 0  0.46875 0.15625 0  0.5 0.15625 0  0.53125 0.15625 0  0.5625 0.15625 0  0.59375 0.15625 0  0.625 0.15625 0  0.65625 0.15625 0  0.6875 0.15625 0  0.71875 0.15625 0  0.75 0.15625 0  0.78125 0.15625 0  0.8125 0.15625 0  0.84375 0.15625 0  0.875 0.15625 0  0.90625 0.15625 0  0.9375 0.15625 0  0.96875 0.15625 0  1 0.15625 0  0 0.1875 0  0.03125 0.1875 0  0.0625 0.1875 0  0.09375 0.1875 0  0.125 0.1875 0  0.15625 0.1875 0  0.1875 0.1875 0  0.21875 0.1875 0  0.25 0.1875 0  0.28125 0.1875 0  0.3125 0.1875 0  0.34375 0.1875 0  0.375 0.1875 0  0.40625 0.1875 0  0.4375 0.1875 0  0.46875 0.1875 0  0.5 0.1875 0  0.53125 0.1875 0  0.5625 0.1875 0  0.59375 0.1875 0  0.625 0.1875 0  0.65625 0.1875 0  0.6875 0.1875 0  0.71875 0.1875 0  0.75 0.1875 0  0.78125 0.1875 0  0.8125 0.1875 0  0.84375 0.1875 0  0.875 0.1875 0  0.90625 0.1875 0  0.9375 0.1875 0  0.96875 0.1875 0  1 0.1875 0  0 0.21875 0  0.03125 0.21875 0  0.0625 0.21875 0  0.09375 0.21875 0  0.125 0.21875 0  0.15625 0.21875 0  0.1875 0.21875 0  0.21875 0.21875 0  0.25 0.21875 0  0.28125 0.21875 0  0.3125 0.21875 0  0.34375 0.21875 0  0.375 0.21875 0  0.40625 0.21875 0  0.4375 0.21875 0  0.46875 0.21875 0  0.5 0.21875 0  0.53125 0.21875 0  0.5625 0.21875 0  0.59375 0.21875 0  0.625 0.21875 0  0.65625 0.21875 0  0.6875 0.21875 0  0.71875 0.21875 0  0.75 0.21875 0  0.78125 0.21875 0  0.8125 0.21875 0  0.84375 0.21875 0  0.875 0.21875 0  0.90625 0.21875 0  0.9375 0.21875 0  0.96875 0.21875 0  1 0.21875 0  0 0.25 0  0.03125 0.25 0  0.0625 0.25 0  0.09375 0.25 0  0.125 0.25 0  0.15625 0.25 0  0.1875 0.25 0  0.21875 0.25 0  0.25 0.25 0  0.28125 0.25 0  0.3125 0.25 0  0.34375 0.25 0  0.375 0.25 0  0.40625 0.25 0  0.4375 0.25 0  0.46875 0.25 0  0.5 0.25 0  0.53125 0.25 0  0.5625 0.25 0  0.59375 0.25 0  0.625 0.25 0  0.65625 0.25 0  0.6875 0.25 0  0.71875 0.25 0  0.75 0.25 0  0.78125 0.25 0  0.8125 0.25 0  0.84375 0.25 0  0.875 0.25 0  0.90625 0.25 0  0.9375 0.25 0  0.96875 0.25 0  1 0.25 0  0 0.28125 0  0.03125 0.28125 0  0.0625 0.28125 0  0.09375 0.28125 0  0.125 0.28125 0  0.15625 0.28125 0  0.1875 0.28125 0  0.21875 0.28125 0  0.25 0.28125 0  0.28125 0.28125 0  0.3125 0.28125 0  0.34375 0.28125 0  0.375 0.28125 0  0.40625 0.28125 0  0.4375 0.28125 0  0.46875 0.28125 0  0.5 0.28125 0  0.53125 0.28125 0  0.5625 0.28125 0  0.59375 0.28125 0  0.625 0.28125 0  0.65625 0.28125 0  0.6875 0.28125 0  0.71875 0.28125 0  0.75 0.28125 0  0.78125 0.28125 0  0.8125 0.28125 0  0.84375 0.28125 0  0.875 0.28125 0  0.90625 0.28125 0  0.9375 0.28125 0  0.96875 0.28125 0  1 0.28125 0  0 0.3125 0  0.03125 0.3125 0  0.0625 0.3125 0  0.09375 0.3125 0  0.125 0.3125 0  0.15625 0.3125 0  0.1875 0.3125 0  0.21875 0.3125 0  0.25 0.3125 0  0.28125 0.3125 0  0.3125 0.3125 0  0.34375 0.3125 0  0.375 0.3125 0  0.40625 0.3125 0  0.4375 0.3125 0  0.46875 0.3125 0  0.5 0.3125 0  0.53125 0.3125 0  0.5625 0.3125 0  0.59375 0.3125 0  0.625 0.3125 0  0.65625 0.3125 0  0.6875 0.3125 0  0.71875 0.3125 0  0.75 0.3125 0  0.78125 0.3125 0  0.8125 0.3125 0  0.84375 0.3125 0  0.875 0.3125 0  0.90625 0.3125 0  0.9375 0.3125 0  0.96875 0.3125 0  1 0.3125 0  0 0.34375 0  0.03125 0.34375 0  0.0625 0.34375 0  0.09375 0.34375 0  0.125 0.34375 0  0.15625 0.34375 0  0.1875 0.34375 0  0.21875 0.34375 0  0.25 0.34375 0  0.28125 0.34375 0  0.3125 0.34375 0  0.34375 0.34375 0  0.375 0.34375 0  0.40625 0.34375 0  0.4375 0.34375 0  0.46875 0.34375 0  0.5 0.34375 0  0.53125 0.34375 0  0.5625 0.34375 0  0.59375 0.34375 0  0.625 0.34375 0  0.65625 0.34375 0  0.6875 0.34375 0  0.71875 0.34375 0  0.75 0.34375 0  0.78125 0.34375 0  0.8125 0.34375 0  0.84375 0.34375 0  0.875 0.34375 0  0.90625 0.34375 0  0.9375 0.34375 0  0.96875 0.34375 0  1 0.34375 0  0 0.375 0  0.03125 0.375 0  0.0625 0.375 0  0.09375 0.375 0  0.125 0.375 0  0.15625 0.375 0  0.1875 0.375 0  0.21875 0.375 0  0.25 0.375 0  0.28125 0.375 0  0.3125 0.375 0  0.34375 0.375 0  0.375 0.375 0  0.40625 0.375 0  0.4375 0.375 0  0.46875 0.375 0  0.5 0.375 0  0.53125 0.375 0  0.5625 0.375 0  0.59375 0.375 0  0.625 0.375 0  0.65625 0.375 0  0.6875 0.375 0  0.71875 0.375 0  0.75 0.375 0  0.78125 0.375 0  0.8125 0.375 0  0.84375 0.375 0  0.875 0.375 0  0.90625 0.375 0  0.9375 0.375 0  0.96875 0.375 0  1 0.375 0  0 0.40625 0  0.03125 0.40625 0  0.0625 0.40625 0  0.09375 0.40625 0  0.125 0.40625 0  0.15625 0.40625 0  0.1875 0.40625 0  0.21875 0.40625 0  0.25 0.40625 0  0.28125 0.40625 0  0.3125 0.40625 0  0.34375 0.40625 0  0.375 0.40625 0  0.40625 0.40625 0  0.4375 0.40625 0  0.46875 0.40625 0  0.5 0.40625 0  0.53125 0.40625 0  0.5625 0.40625 0  0.59375 0.40625 0  0.625 0.40625 0  0.65625 0.40625 0  0.6875 0.40625 0  0.71875 0.40625 0  0.75 0.40625 0  0.78125 0.40625 0  0.8125 0.40625 0  0.84375 0.40625 0  0.875 0.40625 0  0.90625 0.40625 0  0.9375 0.40625 0  0.96875 0.40625 0  1 0.40625 0  0 0.4375 0  0.03125 0.4375 0  0.0625 0.4375 0  0.09375 0.4375 0  0.125 0.4375 0  0.15625 0.4375 0  0.1875 0.4375 0  0.21875 0.4375 0  0.25 0.4375 0  0.28125 0.4375 0  0.3125 0.4375 0  0.34375 0.4375 0  0.375 0.4375 0  0.40625 0.4375 0  0.4375 0.4375 0  0.46875 0.4375 0  0.5 0.4375 0  0.53125 0.4375 0  0.5625 0.4375 0  0.59375 0.4375 0  0.625 0.4375 0  0.65625 0.4375 0  0.6875 0.4375 0  0.71875 0.4375 0  0.75 0.4375 0  0.78125 0.4375 0  0.8125 0.4375 0  0.84375 0.4375 0  0.875 0.4375 0  0.90625 0.4375 0  0.9375 0.4375 0  0.96875 0.4375 0  1 0.4375 0  0 0.46875 0  0.03125 0.46875 0  0.0625 0.46875 0  0.09375 0.46875 0  0.125 0.46875 0  0.15625 0.46875 0  0.1875 0.46875 0  0.21875 0.46875 0  0.25 0.46875 0  0.28125 0.46875 0  0.3125 0.46875 0  0.34375 0.46875 0  0.375 0.46875 0  0.40625 0.46875 0  0.4375 0.46875 0  0.46875 0.46875 0  0.5 0.46875 0  0.53125 0.46875 0  0.5625 0.46875 0  0.59375 0.46875 0  0.625 0.46875 0  0.65625 0.46875 0  0.6875 0.46875 0  0.71875 0.46875 0  0.75 0.46875 0  0.78125 0.46875 0  0.8125 0.46875 0  0.84375 0.46875 0  0.875 0.46875 0  0.90625 0.46875 0  0.9375 0.46875 0  0.96875 0.46875 0  1 0.46875 0  0 0.5 0  0.03125 0.5 0  0.0625 0.5 0  0.09375 0.5 0  0.125 0.5 0  0.15625 0.5 0  0.1875 0.5 0  0.21875 0.5 0  0.25 0.5 0  0.28125 0.5 0  0.3125 0.5 0  0.34375 0.5 0  0.375 0.5 0  0.40625 0.5 0  0.4375 0.5 0  0.46875 0.5 0  0.5 0.5 0  0.53125 0.5 0  0.5625 0.5 0  0.59375 0.5 0  0.625 0.5 0  0.65625 0.5 0  0.6875 0.5 0  0.71875 0.5 0  0.75 0.5 0  0.78125 0.5 0  0.8125 0.5 0  0.84375 0.5 0  0.875 0.5 0  0.90625 0.5 0  0.9375 0.5 0  0.96875 0.5 0  1 0.5 0  0 0.53125 0  0.03125 0.53125 0  0.0625 0.53125 0  0.09375 0.53125 0  0.125 0.53125 0  0.15625 0.53125 0  0.1875 0.53125 0  0.21875 0.53125 0  0.25 0.53125 0  0.28125 0.53125 0  0.3125 0.53125 0  0.34375 0.53125 0  0.375 0.53125 0  0.40625 0.53125 0  0.4375 0.53125 0  0.46875 0.53125 0  0.5 0.53125 0  0.53125 0.53125 0  0.5625 0.53125 0  0.59375 0.53125 0  0.625 0.53125 0  0.65625 0.53125 0  0.6875 0.53125 0  0.71875 0.53125 0  0.75 0.53125 0  0.78125 0.531
[...]
<PointData  Scalars="phi"> 
<DataArray  type="Float64"  Name="phi"  format="ascii">0.0000000000000000e+00  0.0000000000000000e+00  0.0000000000000000e+00  0.0000000000000000e+00  0.0000000000000000e+00  0.0000000000000000e+00  0.0000000000000000e+00  0.0000000000000000e+00  0.0000000000000000e+00  0.0000000000000000e+00  0.0000000000000000e+00  0.0000000000000000e+00  0.0000000000000000e+00  0.0000000000000000e+00  0.0000000000000000e+00  0.0000000000000000e+00  0.0000000000000000e+00  0.0000000000000000e+00  0.0000000000000000e+00  0.0000000000000000e+00  0.0000000000000000e+00  0.0000000000000000e+00  0.0000000000000000e+00  0.0000000000000000e+00  0.0000000000000000e+00  0.0000000000000000e+00  0.0000000000000000e+00  0.0000000000000000e+00  0.0000000000000000e+00  0.0000000000000000e+00  0.0000000000000000e+00  0.0000000000000000e+00  0.0000000000000000e+00  0.0000000000000000e+00  -1.0128024464985927e-14  7.0972173235582731e-04  2.7964761903418052e-03  6.8580183675779087e-03  1.3394200001043355e-02  2.2782115375755033e-02  3.5256001708159936e-02  5.0892823287264494e-02  6.9604192905406342e-02  9.1135014831300987e-02  1.1506896130706080e-01  1.4084062272440018e-01  1.6775390795160547e-01  1.9500602471510020e-01  2.2171614944966361e-01  2.4695770986899068e-01  2.6979305874760140e-01  2.8930921961250788e-01  3.0465333804081129e-01  3.1506647797966270e-01  3.1991446093887993e-01  3.1871455516266273e-01  3.1115697839261902e-01  2.9712037675823855e-01  2.7668067843394223e-01  2.5011299019102096e-01  2.1788651005517462e-01  1.8065279077776331e-01  1.3922818498717815e-01  9.4572199898359424e-02  4.7765715304453400e-02  0.0000000000000000e+00  0.0000000000000000e+00  -7.0972173239577680e-04  -3.9417320894441305e-14  3.4621781842711459e-03  1.0872639659913015e-02  2.3232824667624528e-02  4.1299976665882830e-02  6.5546937036934844e-02  9.6133303923691585e-02  1.3288922661189778e-01  1.7531259063657972e-01  2.2257981391142453e-01  2.7356993584972361e-01  3.2690115766555716e-01  3.8097850161218866e-01  4.3405081803054990e-01  4.8427499831737797e-01  5.2978496343259052e-01  5.6876280246365729e-01  5.9950934167270653e-01  6.2051143520773400e-01  6.3050338420198937e-01  6.2852010743744746e-01  6.1393999672599553e-01  5.8651578339406585e-01  5.4639220666930788e-01  4.9410979840779723e-01  4.3059467317002992e-01  3.5713484006065982e-01  2.7534425562479997e-01  1.8711666335490854e-01  9.4572199898359688e-02  0.0000000000000000e+00  0.0000000000000000e+00  -2.7964761904004541e-03  -3.4621781843869131e-03  -8.5009089017719194e-14  9.3844009382748547e-03  2.6196653016999964e-02  5.1579045783005262e-02  8.6250347872560279e-02  1.3046260607848612e-01  1.8397678400412193e-01  2.4605835079892360e-01  3.1549314355103708e-01  3.9062302991713416e-01  4.6940011995262115e-01  5.4945754698980798e-01  6.2819418439482988e-01  7.0287011302054592e-01  7.7070922434214872e-01  8.2900505321291718e-01  8.7522579326985839e-01  9.0711446294222131e-01  9.2278036059544333e-01  9.2077826760406789e-01  9.0017231664827380e-01  8.6058202298031428e-01  8.0220865857619472e-01  7.2584090992415584e-01  6.3283957481464048e-01  5.2510189442395028e-01  4.0500694603930243e-01  2.7534425562480130e-01  1.3922818498717923e-01  0.0000000000000000e+00  0.0000000000000000e+00  -6.8580183676538462e-03  -1.0872639660062923e-02  -9.3844009384950033e-03  -1.4250584339890365e-13  1.9293569425475443e-02  5.0030009786230130e-02  9.3183870017419068e-02  1.4911315356006175e-01  2.1752680986587797e-01  2.9747856275678008e-01  3.8738749904125874e-01  4.8508479394542481e-01  5.8788492659058877e-01  6.9267877819859380e-01  7.9604514477450261e-01  8.9437646778555857e-01  9.8401401888440310e-01  1.0613873899669570e+00  1.1231529528128439e+00  1.1663259707044848e+00  1.1884012674320843e+00  1.1874577788623062e+00  1.1622429132263847e+00  1.1122334060548131e+00  1.0376702457217013e+00  9.3956623187193911e-01  8.1968577207455551e-01  6.8049757458403815e-01  5.2510189442395394e-01  3.5713484006066404e-01  1.8065279077776597e-01  0.0000000000000000e+00  0.0000000000000000e+00  -1.3394200001134787e-02  -2.3232824667805026e-02  -2.6196653017264995e-02  -1.9293569425818453e-02  -2.0630771124224040e-13  3.3616384879877836e-02  8.2797646914140308e-02  1.4802428093322156e-01  2.2897461764148200e-01  3.2451671391396786e-01  4.3273325236342125e-01  5.5097868506475400e-01  6.7596659708608864e-01  8.0388408260925903e-01  9.3052886560720838e-01  1.0514639992226154e+00  1.1621842778452969e+00  1.2582880205301856e+00  1.3356476523438043e+00  1.3905725306710985e+00  1.4199577359777074e+00  1.4214130608514233e+00  1.3933671678524515e+00  1.3351428175914444e+00  1.2470001574336802e+00  1.1301462650757910e+00  9.8671040998472059e-01  8.1968577207456317e-01  6.3283957481465092e-01  4.3059467317003908e-01  2.1788651005517984e-01  0.0000000000000000e+00  0.0000000000000000e+00  -2.2782115375859838e-02  -4.1299976666089699e-02  -5.1579045783308949e-02  -5.0030009786622989e-02  -3.3616384880350132e-02  -2.7007536758058457e-13  5.2341475220590336e-02  1.2402972697808576e-01  2.1473722755338062e-01  3.2317700671713923e-01  4.4713138379854916e-01  5.8351876463192132e-01  7.2849612404118502e-01  8.7759340030509392e-01  1.0258747771240140e+00  1.1681207693477598e+00  1.2990242020892968e+00  1.4133926108622137e+00  1.5063493148963889e+00  1.5735254376548464e+00  1.6112354672045706e+00  1.6166295524418555e+00  1.5878165961346480e+00  1.5239532989074565e+00  1.4252955869723980e+00  1.2932102698560015e+00  1.1301462650758043e+00  9.3956623187195898e-01  7.2584090992417638e-01  4.9410979840781355e-01  2.5011299019102995e-01  0.0000000000000000e+00  0.0000000000000000e+00  -3.5256001708275725e-02  -6.5546937037163355e-02  -8.6250347872895594e-02  -9.3183870017852624e-02  -8.2797646914661099e-02  -5.2341475221185360e-02  -3.2732236282253946e-13  7.5009498179282458e-02  1.7238074100779860e-01  2.9070593063757133e-01  4.2750778506310028e-01  5.7931511722208029e-01  7.4177925006338052e-01  9.0982696709487820e-01  1.0778442683876501e+00  1.2398839909504067e+00  1.3898894066373790e+00  1.5219252669354619e+00  1.6304074470981680e+00  1.7103223645809322e+00  1.7574277079362464e+00  1.7684266985154096e+00  1.7411090921462955e+00  1.6744533733609805e+00  1.5686860522981714e+00  1.4252955869724191e+00  1.2470001574337133e+00  1.0376702457217386e+00  8.0220865857622914e-01  5.4639220666933386e-01  2.7668067843395622e-01  0.0000000000000000e+00  0.0000000000000000e+00  -5.0892823287388672e-02  -9.6133303923936611e-02  -1.3046260607884552e-01  -1.4911315356052610e-01  -1.4802428093377884e-01  -1.2402972697872165e-01  -7.5009498179980996e-02  -3.7198882444788955e-13  1.0074205729356775e-01  2.2572468524066869e-01  3.7225538877807712e-01  5.3652456609019106e-01  7.1373453054049218e-01  8.9826937196925549e-01  1.0838992796568778e+00  1.2640115974586414e+00  1.4318598252602359e+00  1.5808210608569733e+00  1.7046520205550415e+00  1.7977337991441176e+00  1.8552959297450859e+00  1.8736110661769203e+00  1.8501527056779834e+00  1.7837097558832260e+00  1.6744533733610105e+00  1.5239532989075060e+00  1.3351428175915034e+00  1.1122334060548726e+00  8.6058202298036635e-01  5.8651578339410415e-01  2.9712037675825886e-01  0.0000000000000000e+00  0.0000000000000000e+00  -6.9604192905536225e-02  -1.3288922661215402e-01  -1.8397678400449752e-01  -2.1752680986636283e-01  -2.2897461764206320e-01  -2.1473722755404281e-01  -1.7238074100852468e-01  -1.0074205729433931e-01  -3.9898241296823467e-13  1.2830712494453972e-01  2.8131844531200706e-01  4.5494070797580716e-01  6.4398846194071657e-01  8.4236902341773623e-01  1.0433052617096088e+00  1.2395877645804472e+00  1.4238467844125375e+00  1.5888335765386152e+00  1.7277003492832099e+00  1.8342680667446960e+00  1.9032717795865810e+00  1.9305739895733525e+00  1.9133377484996288e+00  1.8501527056780238e+00  1.7411090921463648e+00  1.5878165961347339e+00  1.3933671678525432e+00  1.1622429132264718e+00  9.0017231664834740e-01  6.1393999672604871e-01  3.1115697839264683e-01  0.0000000000000000e+00  0.0000000000000000e+00  -9.1135014831433867e-02  -1.7531259063684174e-01  -2.4605835079930746e-01  -2.9747856275727513e-01  -3.2451671391456038e-01  -3.2317700671781313e-01  -2.9070593063830857e-01  -2.2572468524144995e-01  -1.2830712494534496e-01  -4.0459515944444611e-13  1.5621550107089649e-01  3.3601963065138707e-01  5.3390388071752248e-01  7.4336910598197126e-01  9.5716449638003120e-01  1.1675583291148062e+00  1.3666301826928660e+00  1.5465734426693483e+00  1.6999965041742338e+00  1.8202110962524380e+00  1.9014966170717775e+00  1.9393302595159250e+00  1.9305739895734044e+00  1.8736110661770118e+00  1.7684266985155268e+00  1.6166295524419856e+00  1.4214130608515538e+00  1.1874577788624259e+00  9.2077826760416681e-01  6.2852010743751774e-01  3.1871455516269925e-01  0.0000000000000000e+00  0.0000000000000000e+00  -1.1506896130719402e-01  -2.2257981391168710e-01  -3.1549314355142138e-01  -3.8738749904175374e-01  -4.3273325236401283e-01  -4.4713138379922057e-01  -4.2750778506383280e-01  -3.7225538877885078e-01  -2.8131844531280109e-01  -1.5621550107169024e-01  -3.8676369156085048e-13  1.8284015856809657e-01  3.8654041027061048e-01  6.0426874649767992e-01  8.2837845101096219e-01  1.0506947434186498e+00  1.2628243938650594e+00  1.4564764655043505e+00  1.6237818875026815e+00  1.7575995790929742e+00  1.8517973341264724e+00  1.9014966170718413e+00  1.9032717795866958e+00  1.8552959297452372e+00  1.7574277079364196e+00  1.6112354672047515e+00  1.4199577359778821e+00  1.1884012674322406e+00  9.2278036059557056e-01  6.3050338420207908e-01  3.1991446093892628e-01  0.0000000000000000e+00  0.0000000000000000e+00  -1.4084062272453121e-01  -2.7356993584998174e-01  -3.9062302991751158e-01  -4.8508479394591025e-01  -5.5097868506533298e-01  -5.8351876463257679e-01  -5.7931511722279305e-01  -5.3652456609094079e-01  -4.5494070797657266e-01  -3.3601963065214729e-01  -1.8284015856883129e-01  -3.4528449307720529e-13  2.0654835393799659e-01  4.2971579734907395e-01  6.6154056892576696e-01  8.9348794868700732e-01  1.1167742449340843e+00  1.3227026697404733e+00  1.5029982222315370e+00  1.6501287139229242e+00  1.7575995790930490e+00  1.8202110962525755e+00  1.8342680667448816e+00  1.7977337991443365e+00  1.7103223645811680e+00  1.5735254376550838e+00  1.3905725306713224e+00  1.1663259707046816e+00  9.0711446294237952e-01  6.2051143520784469e-01  3.1506647797971965e-01  0.0000000000000000e+00  0.0000000000000000e+00  -1.6775390795173203e-01  -3.2690115766580630e-01  -4.6940011995298497e-01  -5.8788492659105585e-01  -6.7596659708664442e-01  -7.2849612404181219e-01  -7.4177925006405987e-01  -7.1373453054120306e-01  -6.4398846194143777e-01  -5.3390388071823280e-01  -3.8654041027128988e-01  -2.0654835393862644e-01  -2.8199008512155109e-13  2.2583527850819185e-01  4.6276357362053000e-01  7.0197624117675683e-01  9.3438510110094886e-01  1.1509701993917583e+00  1.3431267919656702e+00  1.5029982222316220e+00  1.6237818875028402e+00  1.6999965041744525e+00  1.7277003492834735e+00  1.7046520205553333e+00  1.6304074470984711e+00  1.5063493148966860e+00  1.3356476523440799e+00  1.1231529528130830e+00  8.7522579327004912e-01  5.9950934167283920e-01  3.0465333804087935e-01  0.0000000000000000e+00  0.0000000000000000e+00  -1.9500602471522022e-01  -3.8097850161242469e-01  -5.4945754699015215e-01  -6.9267877819903467e-01  -8.0388408260978206e-01  -8.7759340030568200e-01  -9.0982696709551214e-01  -8.9826937196991463e-01  -8.4236902341839959e-01  -7.4336910598261785e-01  -6.0426874649828988e-01  -4.2971579734962922e-01  -2.2583527850867641e-01  -2.0047450379247816e-13  2.3944788350167948e-01  4.8351373961523725e-01  7.2289361399280117e-01  9.4833052104876880e-01  1.1509701993918515e+00  1.3227026697406503e+00  1.4564764655045990e+00  1.5465734426696538e+00  1.5888335765389610e+00  1.5808210608573414e+00  1.5219252669358343e+00  1.4133926108625725e+00  1.2582880205305140e+00  1.0613873899672397e+00  8.2900505321314111e-01  5.6876280246381250e-01  2.8930921961258727e-01  0.0000000000000000e+00  0.0000000000000000e+00  -2.2171614944977536e-01  -4.3405081803076945e-01  -6.2819418439514940e-01  -7.9604514477491084e-01  -9.3052886560769088e-01  -1.0258747771245540e+00  -1.0778442683882288e+00  -1.0838992796574747e+00  -1.0433052617102034e+00  -9.5716449638060297e-01  -8.2837845101149177e-01  -6.6154056892623680e-01  -4.6276357362092491e-01  -2.3944788350198723e-01  -1.0594452152179790e-13  2.4648834215700727e-01  4.9058796172867247e-01  7.2289361399289986e-01  9.3438510110113970e-01  1.1167742449343570e+00  1.2628243938654005e+00  1.3666301826932599e+00  1.4238467844129663e+00  1.4318598252606809e+00  1.3898894066378211e+00  1.2990242020897171e+00  1.1621842778456777e+00  9.8401401888472861e-01  7.7070922434240541e-01  5.2978496343276782e-01  2.6979305874769177e-01  0.0000000000000000e+00  0.0000000000000000e+00  -2.4695770986909282e-01  -4.8427499831757836e-01  -7.0287011302083702e-01  -8.9437646778592927e-01  -1.0514639992230514e+00  -1.1681207693482452e+00  -1.2398839909509225e+00  -1.2640115974591684e+00  -1.2395877645809650e+00  -1.1675583291152951e+00  -1.0506947434190912e+00  -8.9348794868738435e-01  -7.0197624117705526e-01  -4.8351373961544580e-01  -2.4648834215711818e-01  -4.6454722011772453e-15  2.4648834215710896e-01  4.8351373961543676e-01  7.0197624117704638e-01  8.9348794868737569e-01  1.0506947434190828e+00  1.1675583291152869e+00  1.2395877645809572e+00  1.2640115974591613e+00  1.2398839909509161e+00  1.1681207693482394e+00  1.0514639992230466e+00  8.9437646778592517e-01  7.0287011302083380e-01  4.8427499831757614e-01  2.4695770986909163e-01  0.0000000000000000e+00  0.0000000000000000e+00  -2.6979305874769294e-01  -5.2978496343276993e-01  -7.7070922434240852e-01  -9.8401401888473261e-01  -1.1621842778456823e+00  -1.2990242020897227e+00  -1.3898894066378273e+00  -1.4318598252606878e+00  -1.4238467844129734e+00  -1.3666301826932672e+00  -1.2628243938654082e+00  -1.1167742449343649e+00  -9.3438510110114792e-01  -7.2289361399290841e-01  -4.9058796172868135e-01  -2.4648834215701634e-01  9.6698148948384218e-14  2.3944788350197788e-01  4.6276357362091552e-01  6.6154056892622748e-01  8.2837845101148266e-01  9.5716449638059409e-01  1.0433052617101950e+00  1.0838992796574671e+00  1.0778442683882219e+00  1.0258747771245480e+00  9.3052886560768566e-01  7.9604514477490662e-01  6.2819418439514607e-01  4.3405081803076712e-01  2.2171614944977414e-01  0.0000000000000000e+00  0.0000000000000000e+00  -2.8930921961258838e-01  -5.6876280246381472e-01  -8.2900505321314433e-01  -1.0613873899672437e+00  -1.2582880205305189e+00  -1.4133926108625783e+00  -1.5219252669358407e+00  -1.5808210608573479e+00  -1.5888335765389674e+00  -1.5465734426696605e+00  -1.4564764655046059e+00  -1.3227026697406572e+00  -1.1509701993918586e+00  -9.4833052104877646e-01  -7.2289361399280927e-01  -4.8351373961524591e-01  -2.3944788350168852e-01  1.9115475499030091e-13  2.2583527850866686e-01  4.2971579734961957e-01  6.0426874649828044e-01  7.4336910598260852e-01  8.4236902341839071e-01  8.9826937196990653e-01  9.0982696709550470e-01  8.7759340030567545e-01  8.0388408260977662e-01  6.9267877819903012e-01  5.4945754699014859e-01  3.8097850161242225e-01  1.9500602471521894e-01  0.0000000000000000e+00  0.0000000000000000e+00  -3.0465333804088052e-01  -5.9950934167284153e-01  -8.7522579327005257e-01  -1.1231529528130875e+00  -1.3356476523440848e+00  -1.5063493148966920e+00  -1.6304074470984773e+00  -1.7046520205553395e+00  -1.7277003492834797e+00  -1.6999965041744585e+00  -1.6237818875028458e+00  -1.5029982222316278e+00  -1.3431267919656762e+00  -1.1509701993917651e+00  -9.3438510110095618e-01  -7.0197624117676483e-01  -4.6276357362053866e-01  -2.2583527850820095e-01  2.7253894211892728e-13  2.0654835393861681e-01  3.8654041027128028e-01  5.3390388071822348e-01  6.4398846194142867e-01  7.1373453054119473e-01  7.4177925006405221e-01  7.2849612404180542e-01  6.7596659708663853e-01  5.8788492659105107e-01  4.6940011995298125e-01  3.2690115766580374e-01  1.6775390795173073e-01  0.0000000000000000e+00  0.0000000000000000e+00  -3.1506647797972087e-01  -6.2051143520784713e-01  -9.0711446294238307e-01  -1.1663259707046862e+00  -1.3905725306713275e+00  -1.5735254376550896e+00  -1.7103223645811743e+00  -1.7977337991443425e+00  -1.8342680667448874e+00  -1.8202110962525808e+00  -1.7575995790930539e+00  -1.6501287139229288e+00  -1.5029982222315421e+00  -1.3227026697404789e+00  -1.1167742449340907e+00  -8.9348794868701453e-01  -6.6154056892577495e-01  -4.2971579734908266e-01  -2.0654835393800575e-01  3.3586661997446619e-13  1.8284015856882185e-01  3.3601963065213797e-01  4.5494070797656366e-01  5.3652456609093235e-01  5.7931511722278539e-01  5.8351876463256991e-01  5.5097868506532710e-01  4.8508479394590537e-01  3.9062302991750786e-01  2.7356993584997918e-01  1.4084062272452991e-01  0.0000000000000000e+00  0.0000000000000000e+00  -3.1991446093892750e-01  -6.3050338420208152e-01  -9.2278036059557422e-01  -1.1884012674322455e+00  -1.4199577359778877e+00  -1.6112354672047575e+00  -1.7574277079364258e+00  -1.8552959297452432e+00  -1.9032717795867011e+00  -1.9014966170718459e+00  -1.8517973341264766e+00  -1.7575995790929779e+00  -1.6237818875026855e+00  -1.4564764655043552e+00  -1.2628243938650650e+00  -1.0506947434186562e+00  -8.2837845101096952e-01  -6.0426874649768803e-01  -3.8654041027061919e-01  -1.8284015856810562e-01  3.7758601017527763e-13  1.5621550107168117e-01  2.8131844531279232e-01  3.7225538877884246e-01  4.2750778506382514e-01  4.4713138379921380e-01  4.3273325236400695e-01  3.8738749904174891e-01  3.1549314355141767e-01  2.2257981391168458e-01  1.1506896130719274e-01  0.0000000000000000e+00  0.0000000000000000e+00  -3.1871455516270053e-01  -6.2852010743752029e-01  -9.2077826760417048e-01  -1.1874577788624305e+00  -1.4214130608515592e+00  -1.6166295524419914e+00  -1.7684266985155326e+00  -1.8736110661770171e+00  -1.9305739895734095e+00  -1.9393302595159292e+00  -1.9014966170717811e+00  -1.8202110962524414e+00  -1.6999965041742369e+00  -1.5465734426693523e+00  -1.3666301826928708e+00  -1.1675583291148117e+00  -9.5716449638003764e-01  -7.4336910598197858e-01  -5.3390388071753048e-01  -3.3601963065139562e-01  -1.5621550107090518e-01  3.9592852373080330e-13  1.2830712494533653e-01  2.2572468524144193e-01  2.9070593063830114e-01  3.2317700671780647e-01  3.2451671391455461e-01  2.9747856275727036e-01  2.4605835079930380e-01  1.7531259063683927e-01  9.1135014831432631e-02  0.0000000000000000e+00  0.0000000000000000e+00  -3.1115697839264800e-01  -6.1393999672605093e-01  -9.0017231664835085e-01  -1.1622429132264762e+00  -1.3933671678525483e+00  -1.5878165961347395e+00  -1.7411090921463701e+00  -1.8501527056780289e+00  -1.9133377484996332e+00  -1.9305739895733562e+00  -1.9032717795865843e+00  -1.8342680667446984e+00  -1.7277003492832126e+00  -1.5888335765386183e+00  -1.4238467844125413e+00  -1.2395877645804521e+00  -1.0433052617096144e+00  -8.4236902341774278e-01  -6.4398846194072379e-01  -4.5494070797581504e-01  -2.8131844531201516e-01  -1.2830712494454785e-01  3.9099361631587262e-13  1.0074205729433167e-01  1.7238074100851758e-01  2.1473722755403640e-01  2.2897461764205762e-01  2.1752680986635825e-01  1.8397678400449399e-01  1.3288922661215163e-01  6.9604192905535045e-02  0.0000000000000000e+00  0.0000000000000000e+00  -2.9712037675825986e-01  -5.8651578339410615e-01  -8.6058202298036934e-01  -1.1122334060548764e+00  -1.3351428175915077e+00  -1.5239532989075106e+00  -1.6744533733610152e+00  -1.7837097558832304e+00  -1.8501527056779872e+00  -1.8736110661769236e+00  -1.8552959297450886e+00  -1.7977337991441198e+00  -1.7046520205550435e+00  -1.5808210608569755e+00  -1.4318598252602388e+00  -1.2640115974586452e+00  -1.0838992796568825e+00  -8.9826937196926115e-01  -7.1373453054049862e-01  -5.3652456609019816e-01  -3.7225538877808451e-01  -2.2572468524067615e-01  -1.0074205729357516e-01  3.6482483392033068e-13  7.500949817997429