<?xml version="1.0"?>
<VTKFile type="UnstructuredGrid"  version="0.1"  >
<UnstructuredGrid>
<Piece  NumberOfPoints="1089" NumberOfCells="2048">
<Points>
<DataArray  type="Float64"  NumberOfComponents="3"  format="ascii">0 0 0  0.03125 0 0  0.0625 0 0  0.09375 0 0  0.125 0 0  0.15625 0 0  0.1875 0 0  0.21875 0 0  0.25 0 0  0.28125 0 0  0.3125 0 0  0.34375 0 0  0.375 0 0  0.40625 0 0  0.4375 0 0  0.46875 0 0  0.5 0 0  0.53125 0 0  0.5625 0 0  0.59375 0 0  0.625 0 0  0.65625 0 0  0.6875 0 0  0.71875 0 0  0.75 0 0  0.78125 0 0  0.8125 0 0  0.84375 0 0  0.875 0 0  0.90625 0 0  0.9375 0 0  0.96875 0 0  1 0 0  0 0.03125 0  0.03125 0.03125 0  0.0625 0.03125 0  0.09375 0.03125 0  0.125 0.03125 0  0.15625 0.03125 0  0.1875 0.03125 0  0.21875 0.03125 0  0.25 0.03125 0  0.28125 0.03125 0  0.3125 0.03125 0  0.34375 0.03125 0  0.375 0.03125 0  0.40625 0.03125 0  0.4375 0.03125 0  0.46875 0.03125 0  0.5 0.03125 0  0.53125 0.03125 0  0.5625 0.03125 0  0.59375 0.03125 0  0.625 0.03125 0  0.65625 0.03125 0  0.6875 0.03125 0  0.71875 0.03125 0  0.75 0.03125 0  0.78125 0.03125 0  0.8125 0.03125 0  0.84375 0.03125 0  0.875 0.03125 0  0.90625 0.03125 0  0.9375 0.03125 0  0.96875 0.03125 0  1 0.03125 0  0 0.0625 0  0.03125 0.0625 0  0.0625 0.0625 0  0.09375 0.0625 0  0.125 0.0625 0  0.15625 0.0625 0  0.1875 0.0625 0  0.21875 0.0625 0  0.25 0.0625 0  0.28125 0.0625 0  0.3125 0.0625 0  0.34375 0.0625 0  0.375 0.0625 0  0.40625 0.0625 0  0.4375 0.0625 0  0.46875 0.0625 0  0.5 0.0625 0  0.53125 0.0625 0  0.5625 0.0625 0  0.59375 0.0625 0  0.625 0.0625 0  0.65625 0.0625 0  0.6875 0.0625 0  0.71875 0.0625 0  0.75 0.0625 0  0.78125 0.0625 0  0.8125 0.0625 0  0.84375 0.0625 0  0.875 0.0625 0  0.90625 0.0625 0  0.9375 0.0625 0  0.96875 0.0625 0  1 0.0625 0  0 0.09375 0  0.03125 0.09375 0  0.0625 0.09375 0  0.09375 0.09375 0  0.125 0.09375 0  0.15625 0.09375 0  0.1875 0.09375 0  0.21875 0.09375 0  0.25 0.09375 0  0.28125 0.09375 0  0.3125 0.09375 0  0.34375 0.09375 0  0.375 0.09375 0  0.40625 0.09375 0  0.4375 0.09375 0  0.46875 0.09375 0  0.5 0.09375 0  0.53125 0.09375 0  0.5625 0.09375 0  0.59375 0.09375 0  0.625 0.09375 0  0.65625 0.09375 0  0.6875 0.09375 0  0.71875 0.09375 0  0.75 0.09375 0  0.78125 0.09375 0  0.8125 0.09375 0  0.84375 0.09375 0  0.875 0.09375 0  0.90625 0.09375 0  0.9375 0.09375 0  0.96875 0.09375 0  1 0.09375 0  0 0.125 0  0.03125 0.125 0  0.0625 0.125 0  0.09375 0.125 0  0.125 0.125 0  0.15625 0.125 0  0.1875 0.125 0  0.21875 0.125 0  0.25 0.125 0  0.28125 0.125 0  0.3125 0.125 0  0.34375 0.125 0  0.375 0.125 0  0.40625 0.125 0  0.4375 0.125 0  0.46875 0.125 0  0.5 0.125 0  0.53125 0.125 0  0.5625 0.125 0  0.59375 0.125 0  0.625 0.125 0  0.65625 0.125 0  0.6875 0.125 0  0.71875 0.125 0  0.75 0.125 0  0.78125 0.125 0  0.8125 0.125 0  0.84375 0.125 0  0.875 0.125 0  0.90625 0.125 0  0.9375 0.125 0  0.96875 0.125 0  1 0.125 0  0 0.15625 0  0.03125 0.15625 0  0.0625 0.15625 0  0.09375 0.15625 0  0.125 0.15625 0  0.15625 0.15625 0  0.1875 0.15625 0  0.21875 0.15625 0  0.25 0.15625 0  0.28125 0.15625 0  0.3125 0.15625 0  0.34375 0.15625 0  0.375 0.15625 0  0.40625 0.15625 0  0.4375 0.15625 0  0.46875 0.15625 0  0.5 0.15625 0  0.53125 0.15625 0  0.5625 0.15625 0  0.59375 0.15625 0  0.625 0.15625 0  0.65625 0.15625 0  0.6875 0.15625 0  0.71875 0.15625 0  0.75 0.15625 0  0.78125 0.15625 0  0.8125 0.15625 0  0.84375 0.15625 0  0.875 0.15625 0  0.90625 0.15625 0  0.9375 0.15625 0  0.96875 0.15625 0  1 0.15625 0  0 0.1875 0  0.03125 0.1875 0  0.0625 0.1875 0  0.09375 0.1875 0  0.125 0.1875 0  0.15625 0.1875 0  0.1875 0.1875 0  0.21875 0.1875 0  0.25 0.1875 0  0.28125 0.1875 0  0.3125 0.1875 0  0.34375 0.1875 0  0.375 0.1875 0  0.40625 0.1875 0  0.4375 0.1875 0  0.46875 0.1875 0  0.5 0.1875 0  0.53125 0.1875 0  0.5625 0.1875 0  0.59375 0.1875 0  0.625 0.1875 0  0.65625 0.1875 0  0.6875 0.1875 0  0.71875 0.1875 0  0.75 0.1875 0  0.78125 0.1875 0  0.8125 0.1875 0  0.84375 0.1875 0  0.875 0.1875 0  0.90625 0.1875 0  0.9375 0.1875 0  0.96875 0.1875 0  1 0.1875 0  0 0.21875 0  0.03125 0.21875 0  0.0625 0.21875 0  0.09375 0.21875 0  0.125 0.21875 0  0.15625 0.21875 0  0.1875 0.21875 0  0.21875 0.21875 0  0.25 0.21875 0  0.28125 0.21875 0  0.3125 0.21875 0  0.34375 0.21875 0  0.375 0.21875 0  0.40625 0.21875 0  0.4375 0.21875 0  0.46875 0.21875 0  0.5 0.21875 0  0.53125 0.21875 0  0.5625 0.21875 0  0.59375 0.21875 0  0.625 0.21875 0  0.65625 0.21875 0  0.6875 0.21875 0  0.71875 0.21875 0  0.75 0.21875 0  0.78125 0.21875 0  0.8125 0.21875 0  0.84375 0.21875 0  0.875 0.21875 0  0.90625 0.21875 0  0.9375 0.21875 0  0.96875 0.21875 0  1 0.21875 0  0 0.25 0  0.03125 0.25 0  0.0625 0.25 0  0.09375 0.25 0  0.125 0.25 0  0.15625 0.25 0  0.1875 0.25 0  0.21875 0.25 0  0.25 0.25 0  0.28125 0.25 0  0.3125 0.25 0  0.34375 0.25 0  0.375 0.25 0  0.40625 0.25 0  0.4375 0.25 0  0.46875 0.25 0  0.5 0.25 0  0.53125 0.25 0  0.5625 0.25 0  0.59375 0.25 0  0.625 0.25 0  0.65625 0.25 0  0.6875 0.25 0  0.71875 0.25 0  0.75 0.25 0  0.78125 0.25 0  0.8125 0.25 0  0.84375 0.25 0  0.875 0.25 0  0.90625 0.25 0  0.9375 0.25 0  0.96875 0.25 0  1 0.25 0  0 0.28125 0  0.03125 0.28125 0  0.0625 0.28125 0  0.09375 0.28125 0  0.125 0.28125 0  0.15625 0.28125 0  0.1875 0.28125 0  0.21875 0.28125 0  0.25 0.28125 0  0.28125 0.28125 0  0.3125 0.28125 0  0.34375 0.28125 0  0.375 0.28125 0  0.40625 0.28125 0  0.4375 0.28125 0  0.46875 0.28125 0  0.5 0.28125 0  0.53125 0.28125 0  0.5625 0.28125 0  0.59375 0.28125 0  0.625 0.28125 0  0.65625 0.28125 0  0.6875 0.28125 0  0.71875 0.28125 0  0.75 0.28125 0  0.78125 0.28125 0  0.8125 0.28125 0  0.84375 0.28125 0  0.875 0.28125 0  0.90625 0.28125 0  0.9375 0.28125 0  0.96875 0.28125 0  1 0.28125 0  0 0.3125 0  0.03125 0.3125 0  0.0625 0.3125 0  0.09375 0.3125 0  0.125 0.3125 0  0.15625 0.3125 0  0.1875 0.3125 0  0.21875 0.3125 0  0.25 0.3125 0  0.28125 0.3125 0  0.3125 0.3125 0  0.34375 0.3125 0  0.375 0.3125 0  0.40625 0.3125 0  0.4375 0.3125 0  0.46875 0.3125 0  0.5 0.3125 0  0.53125 0.3125 0  0.5625 0.3125 0  0.59375 0.3125 0  0.625 0.3125 0  0.65625 0.3125 0  0.6875 0.3125 0  0.71875 0.3125 0  0.75 0.3125 0  0.78125 0.3125 0  0.8125 0.3125 0  0.84375 0.3125 0  0.875 0.3125 0  0.90625 0.3125 0  0.9375 0.3125 0  0.96875 0.3125 0  1 0.3125 0  0 0.34375 0  0.03125 0.34375 0  0.0625 0.34375 0  0.09375 0.34375 0  0.125 0.34375 0  0.15625 0.34375 0  0.1875 0.34375 0  0.21875 0.34375 0  0.25 0.34375 0  0.28125 0.34375 0  0.3125 0.34375 0  0.34375 0.34375 0  0.375 0.34375 0  0.40625 0.34375 0  0.4375 0.34375 0  0.46875 0.34375 0  0.5 0.34375 0  0.53125 0.34375 0  0.5625 0.34375 0  0.59375 0.34375 0  0.625 0.34375 0  0.65625 0.34375 0  0.6875 0.34375 0  0.71875 0.34375 0  0.75 0.34375 0  0.78125 0.34375 0  0.8125 0.34375 0  0.84375 0.34375 0  0.875 0.34375 0  0.90625 0.34375 0  0.9375 0.34375 0  0.96875 0.34375 0  1 0.34375 0  0 0.375 0  0.03125 0.375 0  0.0625 0.375 0  0.09375 0.375 0  0.125 0.375 0  0.15625 0.375 0  0.1875 0.375 0  0.21875 0.375 0  0.25 0.375 0  0.28125 0.375 0  0.3125 0.375 0  0.34375 0.375 0  0.375 0.375 0  0.40625 0.375 0  0.4375 0.375 0  0.46875 0.375 0  0.5 0.375 0  0.53125 0.375 0  0.5625 0.375 0  0.59375 0.375 0  0.625 0.375 0  0.65625 0.375 0  0.6875 0.375 0  0.71875 0.375 0  0.75 0.375 0  0.78125 0.375 0  0.8125 0.375 0  0.84375 0.375 0  0.875 0.375 0  0.90625 0.375 0  0.9375 0.375 0  0.96875 0.375 0  1 0.375 0  0 0.40625 0  0.03125 0.40625 0  0.0625 0.40625 0  0.09375 0.40625 0  0.125 0.40625 0  0.15625 0.40625 0  0.1875 0.40625 0  0.21875 0.40625 0  0.25 0.40625 0  0.28125 0.40625 0  0.3125 0.40625 0  0.34375 0.40625 0  0.375 0.40625 0  0.40625 0.40625 0  0.4375 0.40625 0  0.46875 0.40625 0  0.5 0.40625 0  0.53125 0.40625 0  0.5625 0.40625 0  0.59375 0.40625 0  0.625 0.40625 0  0.65625 0.40625 0  0.6875 0.40625 0  0.71875 0.40625 0  0.75 0.40625 0  0.78125 0.40625 0  0.8125 0.40625 0  0.84375 0.40625 0  0.875 0.40625 0  0.90625 0.40625 0  0.9375 0.40625 0  0.96875 0.40625 0  1 0.40625 0  0 0.4375 0  0.03125 0.4375 0  0.0625 0.4375 0  0.09375 0.4375 0  0.125 0.4375 0  0.15625 0.4375 0  0.1875 0.4375 0  0.21875 0.4375 0  0.25 0.4375 0  0.28125 0.4375 0  0.3125 0.4375 0  0.34375 0.4375 0  0.375 0.4375 0  0.40625 0.4375 0  0.4375 0.4375 0  0.46875 0.4375 0  0.5 0.4375 0  0.53125 0.4375 0  0.5625 0.4375 0  0.59375 0.4375 0  0.625 0.4375 0  0.65625 0.4375 0  0.6875 0.4375 0  0.71875 0.4375 0  0.75 0.4375 0  0.78125 0.4375 0  0.8125 0.4375 0  0.84375 0.4375 0  0.875 0.4375 0  0.90625 0.4375 0  0.9375 0.4375 0  0.96875 0.4375 0  1 0.4375 0  0 0.46875 0  0.03125 0.46875 0  0.0625 0.46875 0  0.09375 0.46875 0  0.125 0.46875 0  0.15625 0.46875 0  0.1875 0.46875 0  0.21875 0.46875 0  0.25 0.46875 0  0.28125 0.46875 0  0.3125 0.46875 0  0.34375 0.46875 0  0.375 0.46875 0  0.40625 0.46875 0  0.4375 0.46875 0  0.46875 0.46875 0  0.5 0.46875 0  0.53125 0.46875 0  0.5625 0.46875 0  0.59375 0.46875 0  0.625 0.46875 0  0.65625 0.46875 0  0.6875 0.46875 0  0.71875 0.46875 0  0.75 0.46875 0  0.78125 0.46875 0  0.8125 0.46875 0  0.84375 0.46875 0  0.875 0.46875 0  0.90625 0.46875 0  0.9375 0.46875 0  0.96875 0.46875 0  1 0.46875 0  0 0.5 0  0.03125 0.5 0  0.0625 0.5 0  0.09375 0.5 0  0.125 0.5 0  0.15625 0.5 0  0.1875 0.5 0  0.21875 0.5 0  0.25 0.5 0  0.28125 0.5 0  0.3125 0.5 0  0.34375 0.5 0  0.375 0.5 0  0.40625 0.5 0  0.4375 0.5 0  0.46875 0.5 0  0.5 0.5 0  0.53125 0.5 0  0.5625 0.5 0  0.59375 0.5 0  0.625 0.5 0  0.65625 0.5 0  0.6875 0.5 0  0.71875 0.5 0  0.75 0.5 0  0.78125 0.5 0  0.8125 0.5 0  0.84375 0.5 0  0.875 0.5 0  0.90625 0.5 0  0.9375 0.5 0  0.96875 0.5 0  1 0.5 0  0 0.53125 0  0.03125 0.53125 0  0.0625 0.53125 0  0.09375 0.53125 0  0.125 0.53125 0  0.15625 0.53125 0  0.1875 0.53125 0  0.21875 0.53125 0  0.25 0.53125 0  0.28125 0.53125 0  0.3125 0.53125 0  0.34375 0.53125 0  0.375 0.53125 0  0.40625 0.53125 0  0.4375 0.53125 0  0.46875 0.53125 0  0.5 0.53125 0  0.53125 0.53125 0  0.5625 0.53125 0  0.59375 0.53125 0  0.625 0.53125 0  0.65625 0.53125 0  0.6875 0.53125 0  0.71875 0.53125 0  0.75 0.53125 0  0.78125 0.531
[...]
<PointData  Scalars="phi"> 
<DataArray  type="Float64"  Name="phi"  format="ascii">0.0000000000000000e+00  0.0000000000000000e+00  0.0000000000000000e+00  0.0000000000000000e+00  0.0000000000000000e+00  0.0000000000000000e+00  0.0000000000000000e+00  0.0000000000000000e+00  0.0000000000000000e+00  0.0000000000000000e+00  0.0000000000000000e+00  0.0000000000000000e+00  0.0000000000000000e+00  0.0000000000000000e+00  0.0000000000000000e+00  0.0000000000000000e+00  0.0000000000000000e+00  0.0000000000000000e+00  0.0000000000000000e+00  0.0000000000000000e+00  0.0000000000000000e+00  0.0000000000000000e+00  0.0000000000000000e+00  0.0000000000000000e+00  0.0000000000000000e+00  0.0000000000000000e+00  0.0000000000000000e+00  0.0000000000000000e+00  0.0000000000000000e+00  0.0000000000000000e+00  0.0000000000000000e+00  0.0000000000000000e+00  0.0000000000000000e+00  0.0000000000000000e+00  -5.1922780376824335e-21  2.9363285131717043e-13  1.1569848546828049e-12  2.8373649167888777e-12  5.5415764780034854e-12  9.4256345918318858e-12  1.4586450119335803e-11  2.1055865462153163e-11  2.8797312219587433e-11  3.7705249746439864e-11  4.7607430941723421e-11  5.8269929135744914e-11  6.9404750849326993e-11  8.0679757186575015e-11  9.1730525399457230e-11  1.0217370514159014e-10  1.1162136403684875e-10  1.1969577672873175e-10  1.2604409213019683e-10  1.3035231596032336e-10  1.3235806982997344e-10  1.3186163334112218e-10  1.2873484041559155e-10  1.2292748336963011e-10  1.1447097593356854e-10  1.0347913791142337e-10  9.0146090396927927e-11  7.4741400024631331e-11  5.7602816010060433e-11  3.9127314853164603e-11  1.9762088477539473e-11  0.0000000000000000e+00  0.0000000000000000e+00  -2.9363287196965026e-13  -2.0541585600405068e-20  1.4324054340257921e-12  4.4983324065891924e-12  9.6121063296442975e-12  1.7087021207859694e-11  2.7118705499402593e-11  3.9773189674151884e-11  5.4980201470526673e-11  7.2532001290808404e-11  9.2087848879022219e-11  1.1318396970239878e-10  1.3524867275418676e-10  1.5762206858948985e-10  1.7957965482648021e-10  2.0035888294959536e-10  2.1918770089449358e-10  2.3531398517514909e-10  2.4803473738481875e-10  2.5672392435253314e-10  2.6085788904019853e-10  2.6003734881791883e-10  2.5400512600209419e-10  2.4265891823259598e-10  2.2605860840665048e-10  2.0442783053237139e-10  1.7814974558137050e-10  1.4775724099658335e-10  1.1391805831279281e-10  7.7415695196021558e-11  3.9127314853164713e-11  0.0000000000000000e+00  0.0000000000000000e+00  -1.1569848853942532e-12  -1.4324054951275469e-12  -4.5441755194574117e-20  3.8826040321743155e-12  1.0838329711011291e-11  2.1339775945390361e-11  3.5684318568668070e-11  5.3976236790218353e-11  7.6116634186401468e-11  1.0180161363007332e-10  1.3052884003131971e-10  1.6161229502168558e-10  1.9420470599095452e-10  2.2732683022888731e-10  2.5990250475197666e-10  2.9079814401094208e-10  3.1886518984110924e-10  3.4298389760211739e-10  3.6210678415572358e-10  3.7530006950465565e-10  3.8178151448928186e-10  3.8095318944029688e-10  3.7242789838108613e-10  3.5604822352343947e-10  3.3189743703377983e-10  3.0030184182751661e-10  2.6182444017865877e-10  2.1725017684840162e-10  1.6756334644117062e-10  1.1391805831279336e-10  5.7602816010060872e-11  0.0000000000000000e+00  0.0000000000000000e+00  -2.8373649572565501e-12  -4.4983324871086641e-12  -3.8826041519481343e-12  -7.8928056706205899e-20  7.9823199351925084e-12  2.0698893932942330e-11  3.8552921618862915e-11  6.1692519600040612e-11  8.9997271660690954e-11  1.2307567537203166e-10  1.6027366021152557e-10  2.0069391925500983e-10  2.4322537312505790e-10  2.8658168747071602e-10  3.2934740906089414e-10  3.7002998428313121e-10  4.0711568905995242e-10  4.3912734000945230e-10  4.6468157929171393e-10  4.8254353309114353e-10  4.9167673595107855e-10  4.9128638684852791e-10  4.8085425153924215e-10  4.6016384004320368e-10  4.2931485637480495e-10  3.8872632568761154e-10  3.3912823555260239e-10  2.8154196355502110e-10  2.1725017684840309e-10  1.4775724099658506e-10  7.4741400024632417e-11  0.0000000000000000e+00  0.0000000000000000e+00  -5.5415765278323738e-12  -9.6121064287962225e-12  -1.0838329858508614e-11  -7.9823201295948804e-12  -1.1970891891658150e-19  1.3908092059264750e-11  3.4255834050816980e-11  6.1242020771075539e-11  9.4733568123348110e-11  1.3426215777423447e-10  1.7903453884058375e-10  2.2795616993760396e-10  2.7966736405431364e-10  3.3259060933580557e-10  3.8498729996107877e-10  4.3502173984923528e-10  4.8082999225541334e-10  5.2059095164910672e-10  5.5259691825996609e-10  5.7532096413444606e-10  5.8747849227274410e-10  5.8808060320845749e-10  5.7647718819037496e-10  5.5238805326227098e-10  5.1592082907953698e-10  4.6757491936900374e-10  4.0823126585491406e-10  3.3912823555260550e-10  2.6182444017866296e-10  1.7814974558137423e-10  9.0146090396930060e-11  0.0000000000000000e+00  0.0000000000000000e+00  -9.4256346505378859e-12  -1.7087021324681155e-11  -2.1339776119179540e-11  -2.0698894162005189e-11  -1.3908092341377079e-11  -1.6621431359638264e-19  2.1655215440026737e-11  5.1314764435229389e-11  8.8843138919868749e-11  1.3370788126454299e-10  1.8499147141631067e-10  2.4141896277016438e-10  3.0140038220247617e-10  3.6308633303425268e-10  4.2443472214864935e-10  4.8328609423943666e-10  5.3744471416391869e-10  5.8476230586320514e-10  6.2322124233707928e-10  6.5101399020837662e-10  6.6661574423834862e-10  6.6884743677730732e-10  6.5692666499514864e-10  6.3050453101024950e-10  5.8968691906212317e-10  5.3503931865762671e-10  4.6757491936900922e-10  3.8872632568761956e-10  3.0030184182752488e-10  2.0442783053237798e-10  1.0347913791142701e-10  0.0000000000000000e+00  0.0000000000000000e+00  -1.4586450186350044e-11  -2.7118705632761802e-11  -3.5684318767065899e-11  -3.8552921880368499e-11  -3.4255834372893484e-11  -2.1655215819555658e-11  -2.1665556692838174e-19  3.1033646603756873e-11  7.1319008250865683e-11  1.2027363713766512e-10  1.7687260846468193e-10  2.3967978952836306e-10  3.0689600407618653e-10  3.7642231246985856e-10  4.4593603697648477e-10  5.1297666045519442e-10  5.7503833542168669e-10  6.2966547410687134e-10  6.7454775902387896e-10  7.0761092286124655e-10  7.2709979596082913e-10  7.3165040353538077e-10  7.2034830223097205e-10  6.9277086090005138e-10  6.4901179348293002e-10  5.8968691906213165e-10  5.1592082907955032e-10  4.2931485637481994e-10  3.3189743703379369e-10  2.2605860840666100e-10  1.1447097593357419e-10  0.0000000000000000e+00  0.0000000000000000e+00  -2.1055865536827313e-11  -3.9773189822758797e-11  -5.3976237011305985e-11  -6.1692519891460284e-11  -6.1242021130002649e-11  -5.1314764858190604e-11  -3.1033647086663584e-11  -2.6909382574807391e-19  4.1679966968588571e-11  9.3388974893727037e-11  1.5401305870286458e-10  2.2197607350473234e-10  2.9529307450762303e-10  3.7164059365973159e-10  4.4844117409932591e-10  5.2295896449450337e-10  5.9240273830637949e-10  6.5403240510507544e-10  7.0526493386099749e-10  7.4377561738115975e-10  7.6759077249189447e-10  7.7516828588927916e-10  7.6546286869157421e-10  7.3797345618454908e-10  6.9277086090006348e-10  6.3050453101026956e-10  5.5238805326229486e-10  4.6016384004322777e-10  3.5604822352346051e-10  2.4265891823261144e-10  1.2292748336963828e-10  0.0000000000000000e+00  0.0000000000000000e+00  -2.8797312301199828e-11  -5.4980201632945234e-11  -7.6116634428042677e-11  -8.9997271979209308e-11  -9.4733568515658820e-11  -8.8843139382177486e-11  -7.1319008778705168e-11  -4.1679967556861626e-11  -3.2151436058402195e-19  5.3084450289114038e-11  1.1638975686056613e-10  1.8822241956903135e-10  2.6643706404444004e-10  3.4851296689007430e-10  4.3164622878945376e-10  5.1285410277432118e-10  5.8908750638904731e-10  6.5734741967568305e-10  7.1480070878201161e-10  7.5889092388933274e-10  7.8743979981334500e-10  7.9873553122015956e-10  7.9160438877048220e-10  7.6546286869159055e-10  7.2034830223099997e-10  6.5692666499518339e-10  5.7647718819041198e-10  4.8085425153927730e-10  3.7242789838111580e-10  2.5400512600211564e-10  1.2873484041560274e-10  0.0000000000000000e+00  0.0000000000000000e+00  -3.7705249834202402e-11  -7.2532001465470278e-11  -1.0180161388993494e-10  -1.2307567571457354e-10  -1.3426215819614166e-10  -1.3370788176173699e-10  -1.2027363770534331e-10  -9.3388975526409014e-11  -5.3084450980694519e-11  -3.7190384238261581e-19  6.4630970477875131e-11  1.3902125427824762e-10  2.2089181841625295e-10  3.0755377435741353e-10  3.9600724762792416e-10  4.8305339593977595e-10  5.6541530677580775e-10  6.3986315295919994e-10  7.0333880904281415e-10  7.5307513961220151e-10  7.8670536257547768e-10  8.0235825892415712e-10  7.9873553122018034e-10  7.7516828588931577e-10  7.3165040353542792e-10  6.6884743677735975e-10  5.8808060320851002e-10  4.9128638684857599e-10  3.8095318944033669e-10  2.6003734881794711e-10  1.3186163334113689e-10  0.0000000000000000e+00  0.0000000000000000e+00  -4.7607431034789111e-11  -9.2087849064241788e-11  -1.3052884030689400e-10  -1.6027366057478565e-10  -1.7903453928801655e-10  -1.8499147194359310e-10  -1.7687260906672254e-10  -1.5401305937385279e-10  -1.1638975759402831e-10  -6.4630971266737054e-11  -4.1832756415933603e-19  7.5646378325034710e-11  1.5992319427310844e-10  2.5000384349487067e-10  3.4272465342861671e-10  4.3470347576155472e-10  5.2246778317978928e-10  6.0258737001156332e-10  6.7180656902554123e-10  7.2717090400197659e-10  7.6614329997526784e-10  7.8670536257550302e-10  7.8743979981339080e-10  7.6759077249195496e-10  7.2709979596089862e-10  6.6661574423842121e-10  5.8747849227281430e-10  4.9167673595114132e-10  3.8178151448933294e-10  2.6085788904023451e-10  1.3235806982999203e-10  0.0000000000000000e+00  0.0000000000000000e+00  -5.8269929233216013e-11  -1.1318396989638939e-10  -1.6161229531031447e-10  -2.0069391963548430e-10  -2.2795617040624699e-10  -2.4141896332245003e-10  -2.3967979015896037e-10  -2.2197607420755666e-10  -1.8822242033730329e-10  -1.3902125510455838e-10  -7.5646379201417564e-11  -4.5900361564647931e-19  8.5455159579546181e-11  1.7778612823494726e-10  2.7369888948711122e-10  3.6966237737455401e-10  4.6204251897599708e-10  5.4724119602973865e-10  6.2183479604636432e-10  6.8270702998146900e-10  7.2717090400200626e-10  7.5307513961225610e-10  7.5889092388940667e-10  7.4377561738124691e-10  7.0761092286134064e-10  6.5101399020847133e-10  5.7532096413453550e-10  4.8254353309122221e-10  3.7530006950471893e-10  2.5672392435257745e-10  1.3035231596034614e-10  0.0000000000000000e+00  0.0000000000000000e+00  -6.9404750950263630e-11  -1.3524867295507789e-10  -1.9420470628985494e-10  -2.4322537351907825e-10  -2.7966736453964848e-10  -3.0140038277444050e-10  -3.0689600472926124e-10  -2.9529307523550832e-10  -2.6643706484011614e-10  -2.2089181927204794e-10  -1.5992319518077235e-10  -8.5455160530330570e-11  -4.9237119226171058e-19  9.3434730409558755e-11  1.9145897021971296e-10  2.9042832244598544e-10  3.8658273832408909e-10  4.7619039623365622e-10  5.5569125917181157e-10  6.2183479604639792e-10  6.7180656902560419e-10  7.0333880904290100e-10  7.1480070878211635e-10  7.0526493386111350e-10  6.7454775902399953e-10  6.2322124233719757e-10  5.5259691826007590e-10  4.6468157929180937e-10  3.6210678415579974e-10  2.4803473738487174e-10  1.2604409213022400e-10  0.0000000000000000e+00  0.0000000000000000e+00  -8.0679757290004232e-11  -1.5762206879534504e-10  -2.2732683053517820e-10  -2.8658168787448449e-10  -3.3259060983315432e-10  -3.6308633362038293e-10  -3.7642231313911649e-10  -3.7164059440566296e-10  -3.4851296770548666e-10  -3.0755377523444584e-10  -2.5000384442506928e-10  -1.7778612920934739e-10  -9.3434731418770943e-11  -5.1715040905075899e-19  9.9066667494228017e-11  2.0004392729769477e-10  2.9908245793397178e-10  3.9235237080910181e-10  4.7619039623369303e-10  5.4724119602980855e-10  6.0258737001166175e-10  6.3986315295932092e-10  6.5734741967582005e-10  6.5403240510522143e-10  6.2966547410701920e-10  5.8476230586334773e-10  5.2059095164923731e-10  4.3912734000956480e-10  3.4298389760220657e-10  2.3531398517521092e-10  1.1969577672876336e-10  0.0000000000000000e+00  0.0000000000000000e+00  -9.1730525504382363e-11  -1.7957965503531586e-10  -2.5990250506270659e-10  -3.2934740947051998e-10  -3.8498730046564918e-10  -4.2443472274329796e-10  -4.4593603765547748e-10  -4.4844117485611619e-10  -4.3164622961674604e-10  -3.9600724851774405e-10  -3.4272465437238838e-10  -2.7369889047573981e-10  -1.9145897124367263e-10  -9.9066668543653668e-11  -5.3239125972521368e-19  1.0197951336134985e-10  2.0297074211066795e-10  2.9908245793401081e-10  3.8658273832416447e-10  4.6204251897610482e-10  5.2246778317992422e-10  5.6541530677596357e-10  5.8908750638921709e-10  5.9240273830655588e-10  5.7503833542186195e-10  5.3744471416408547e-10  4.8082999225556461e-10  4.0711568906008177e-10  3.1886518984121129e-10  2.1918770089456405e-10  1.1162136403688470e-10  0.0000000000000000e+00  0.0000000000000000e+00  -1.0217370524700043e-10  -2.0035888315939970e-10  -2.9079814432311772e-10  -3.7002998469466851e-10  -4.3502174035616671e-10  -4.8328609483687530e-10  -5.1297666113738123e-10  -5.2295896525486268e-10  -5.1285410360552437e-10  -4.8305339683381230e-10  -4.3470347670980862e-10  -3.6966237836788838e-10  -2.9042832347482969e-10  -2.0004392835213726e-10  -1.0197951443123346e-10  -5.3750999535601857e-19  1.0197951336138999e-10  2.0004392729777353e-10  2.9042832244609980e-10  3.6966237737469955e-10  4.3470347576172579e-10  4.8305339593996610e-10  5.1285410277452291e-10  5.2295896449470914e-10  5.1297666045539615e-10  4.8328609423962670e-10  4.3502173984940630e-10  3.7002998428327664e-10  2.9079814401105634e-10  2.0035888294967405e-10  1.0217370514163025e-10  0.0000000000000000e+00  0.0000000000000000e+00  -1.1162136414172903e-10  -2.1918770110324608e-10  -3.1886519015172419e-10  -4.0711568946943779e-10  -4.8082999275982384e-10  -5.3744471475839375e-10  -5.7503833610049777e-10  -5.9240273906298515e-10  -5.8908750721615658e-10  -5.6541530766545042e-10  -5.2246778412339329e-10  -4.6204251996447083e-10  -3.8658273934790956e-10  -2.9908245898327629e-10  -2.0297074317534910e-10  -1.0197951443119330e-10  -5.3231133926216670e-19  9.9066667494345786e-11  1.9145897021986519e-10  2.7369888948729320e-10  3.4272465342882242e-10  3.9600724762814677e-10  4.3164622878968557e-10  4.4844117409955902e-10  4.4593603697671106e-10  4.2443472214886085e-10  3.8498729996126799e-10  3.2934740906105426e-10  2.5990250475210208e-10  1.7957965482656639e-10  9.1730525399501096e-11  0.0000000000000000e+00  0.0000000000000000e+00  -1.1969577683207228e-10  -2.3531398538083996e-10  -3.4298389790818114e-10  -4.3912734041294335e-10  -5.2059095214613990e-10  -5.8476230644899315e-10  -6.2966547477577094e-10  -6.5403240585064248e-10  -6.5734742049073440e-10  -6.3986315383588297e-10  -6.0258737094143168e-10  -5.4724119700383388e-10  -4.7619039724259458e-10  -3.9235237184316433e-10  -2.9908245898323726e-10  -2.0004392835205852e-10  -9.9066668543535924e-11  -5.1699589914198870e-19  9.3434730409746279e-11  1.7778612823516280e-10  2.5000384349510796e-10  3.0755377435766551e-10  3.4851296689033315e-10  3.7164059365998916e-10  3.7642231247010651e-10  3.6308633303448289e-10  3.3259060933601056e-10  2.8658168747088891e-10  2.2732683022902232e-10  1.5762206858958247e-10  8.0679757186622113e-11  0.0000000000000000e+00  0.0000000000000000e+00  -1.2604409223100295e-10  -2.4803473758546821e-10  -3.6210678445429024e-10  -4.6468157968532695e-10  -5.5259691874483776e-10  -6.2322124290854145e-10  -6.7454775967642862e-10  -7.0526493458834929e-10  -7.1480070957715924e-10  -7.0333880989809791e-10  -6.7180656993272209e-10  -6.2183479699670323e-10  -5.5569126015615423e-10  -4.7619039724255787e-10  -3.8658273934783424e-10  -2.9042832347471533e-10  -1.9145897124352043e-10  -9.3434731418583432e-11  -4.9215232745118111e-19  8.5455159579791130e-11  1.5992319427337311e-10  2.2089181841653006e-10  2.6643706404472160e-10  2.9529307450790092e-10  3.0689600407645231e-10  3.0140038220272179e-10  2.7966736405453140e-10  2.4322537312524097e-10  1.9420470599109719e-10  1.3524867275428450e-10  6.9404750849376637e-11  0.0000000000000000e+00  0.0000000000000000e+00  -1.3035231605762516e-10  -2.5672392454621056e-10  -3.7530006979285235e-10  -4.8254353347109105e-10  -5.7532096460249049e-10  -6.5101399076001396e-10  -7.0761092349116640e-10  -7.4377561808329640e-10  -7.5889092465692409e-10  -7.5307514043785452e-10  -7.2717090487773845e-10  -6.8270703089890432e-10  -6.2183479699666973e-10  -5.4724119700376398e-10  -4.6204251996436314e-10  -3.6966237836774290e-10  -2.7369889047555794e-10  -1.7778612920913188e-10  -8.5455160530085634e-11  -4.5873464451255014e-19  7.5646378325321251e-11  1.3902125427854443e-10  1.8822241956933048e-10  2.2197607350502555e-10  2.3967978952864208e-10  2.4141896277042112e-10  2.2795616993783084e-10  2.0069391925520011e-10  1.6161229502183360e-10  1.1318396970250003e-10  5.8269929135796316e-11  0.0000000000000000e+00  0.0000000000000000e+00  -1.3235806992283502e-10  -2.6085788922504093e-10  -3.8178151476433653e-10  -4.9167673631370574e-10  -5.8747849271945895e-10  -6.6661574476485436e-10  -7.2709979656205905e-10  -7.6759077316206059e-10  -7.8743980054599458e-10  -7.8670536336355509e-10  -7.6614330081118327e-10  -7.2717090487770877e-10  -6.7180656993265923e-10  -6.0258737094133335e-10  -5.2246778412325846e-10  -4.3470347670963755e-10  -3.4272465437218267e-10  -2.5000384442483199e-10  -1.5992319518050771e-10  -7.5646379201131023e-11  -4.1802559760403632e-19  6.4630970478185272e-11  1.1638975686087665e-10  1.5401305870316733e-10  1.7687260846496878e-10  1.8499147141657372e-10  1.7903453884081560e-10  1.6027366021171964e-10  1.3052884003147039e-10  9.2087848879125203e-11  4.7607430941775675e-11  0.0000000000000000e+00  0.0000000000000000e+00  -1.3186163342865071e-10  -2.6003734899214913e-10  -3.8095318969956480e-10  -4.9128638719034799e-10  -5.8808060362954692e-10  -6.6884743727361797e-10  -7.3165040410213814e-10  -7.7516828652102874e-10  -7.9873553191081960e-10  -8.0235825966707760e-10  -7.8670536336352976e-10  -7.5307514043779993e-10  -7.0333880989801126e-10  -6.3986315383576210e-10  -5.6541530766529471e-10  -4.8305339683362225e-10  -3.9600724851752144e-10  -3.0755377523419386e-10  -2.2089181927177086e-10  -1.3902125510426160e-10  -6.4630971266426900e-11  -3.7158741896949323e-19  5.3084450289429135e-11  9.3388974894032938e-11  1.2027363713795394e-10  1.3370788126480709e-10  1.3426215777446675e-10  1.2307567537222574e-10  1.0180161363022385e-10  7.2532001290911168e-11  3.7705249746491983e-11  0.0000000000000000e+00  0.0000000000000000e+00  -1.2873484049694587e-10  -2.5400512616403790e-10  -3.7242789862207548e-10  -4.8085425185696956e-10  -5.7647718858179135e-10  -6.5692666545649312e-10  -7.2034830275780804e-10  -7.6546286927883285e-10  -7.9160438941251125e-10  -7.9873553191079881e-10  -7.8743980054594888e-10  -7.5889092465685026e-10  -7.1480070957705481e-10  -6.5734742049059751e-10  -5.8908750721598680e-10  -5.1285410360532254e-10  -4.3164622961651406e-10  -3.4851296770522775e-10  -2.6643706483983448e-10  -1.8822242033700419e-10  -1.1638975759371781e-10  -5.3084450980379421e-11  -3.2120194080780263e-19  4.1679966968890796e-11  7.1319008251150208e-11  8.8843138920128302e-11  9.4733568123575973e-11  8.9997271660881089e-11  7.6116634186548783e-11  5.4980201470627182e-11  2.8797312219638392e-11  0.0000000000000000e+00  0.0000000000000000e+00  -1.2292748344402888e-10  -2.4265891838069765e-10  -3.5604822374383543e-10  -4.6016384033378628e-10  -5.5238805362025376e-10  -6.3050453143219484e-10  -6.9277086138190301e-10  -7.3797345672167229e-10  -7.6546286927881661e-10  -7.7516828652099224e-10  -7.6759077316200020e-10  -7.4377561808320934e-10  -7.0526493458823349e-10  -6.5403240585049659e-10  -5.9240273906280886e-10  -5.2295896525465703e-10  -4.4844117485588298e-10  -3.7164059440540534e-10  -2.9529307523523044e-10  -2.2197607420726345e-10  -1.5401305937355004e-10  -9.3388975526103112e-11  -4.1679967556559407e-11  -2.6880231314968526e-19  3.1033646