<?xml version="1.0"?>
<VTKFile type="UnstructuredGrid"  version="0.1"  >
<UnstructuredGrid>
<Piece  NumberOfPoints="1089" NumberOfCells="2048">
<Points>
<DataArray  type="Float64"  NumberOfComponents="3"  format="ascii">0 0 0  0.03125 0 0  0.0625 0 0  0.09375 0 0  0.125 0 0  0.15625 0 0  0.1875 0 0  0.21875 0 0  0.25 0 0  0.28125 0 0  0.3125 0 0  0.34375 0 0  0.375 0 0  0.40625 0 0  0.4375 0 0  0.46875 0 0  0.5 0 0  0.53125 0 0  0.5625 0 0  0.59375 0 0  0.625 0 0  0.65625 0 0  0.6875 0 0  0.71875 0 0  0.75 0 0  0.78125 0 0  0.8125 0 0  0.84375 0 0  0.875 0 0  0.90625 0 0  0.9375 0 0  0.96875 0 0  1 0 0  0 0.03125 0  0.03125 0.03125 0  0.0625 0.03125 0  0.09375 0.03125 0  0.125 0.03125 0  0.15625 0.03125 0  0.1875 0.03125 0  0.21875 0.03125 0  0.25 0.03125 0  0.28125 0.03125 0  0.3125 0.03125 0  0.34375 0.03125 0  0.375 0.03125 0  0.40625 0.03125 0  0.4375 0.03125 0  0.46875 0.03125 0  0.5 0.03125 0  0.53125 0.03125 0  0.5625 0.03125 0  0.59375 0.03125 0  0.625 0.03125 0  0.65625 0.03125 0  0.6875 0.03125 0  0.71875 0.03125 0  0.75 0.03125 0  0.78125 0.03125 0  0.8125 0.03125 0  0.84375 0.03125 0  0.875 0.03125 0  0.90625 0.03125 0  0.9375 0.03125 0  0.96875 0.03125 0  1 0.03125 0  0 0.0625 0  0.03125 0.0625 0  0.0625 0.0625 0  0.09375 0.0625 0  0.125 0.0625 0  0.15625 0.0625 0  0.1875 0.0625 0  0.21875 0.0625 0  0.25 0.0625 0  0.28125 0.0625 0  0.3125 0.0625 0  0.34375 0.0625 0  0.375 0.0625 0  0.40625 0.0625 0  0.4375 0.0625 0  0.46875 0.0625 0  0.5 0.0625 0  0.53125 0.0625 0  0.5625 0.0625 0  0.59375 0.0625 0  0.625 0.0625 0  0.65625 0.0625 0  0.6875 0.0625 0  0.71875 0.0625 0  0.75 0.0625 0  0.78125 0.0625 0  0.8125 0.0625 0  0.84375 0.0625 0  0.875 0.0625 0  0.90625 0.0625 0  0.9375 0.0625 0  0.96875 0.0625 0  1 0.0625 0  0 0.09375 0  0.03125 0.09375 0  0.0625 0.09375 0  0.09375 0.09375 0  0.125 0.09375 0  0.15625 0.09375 0  0.1875 0.09375 0  0.21875 0.09375 0  0.25 0.09375 0  0.28125 0.09375 0  0.3125 0.09375 0  0.34375 0.09375 0  0.375 0.09375 0  0.40625 0.09375 0  0.4375 0.09375 0  0.46875 0.09375 0  0.5 0.09375 0  0.53125 0.09375 0  0.5625 0.09375 0  0.59375 0.09375 0  0.625 0.09375 0  0.65625 0.09375 0  0.6875 0.09375 0  0.71875 0.09375 0  0.75 0.09375 0  0.78125 0.09375 0  0.8125 0.09375 0  0.84375 0.09375 0  0.875 0.09375 0  0.90625 0.09375 0  0.9375 0.09375 0  0.96875 0.09375 0  1 0.09375 0  0 0.125 0  0.03125 0.125 0  0.0625 0.125 0  0.09375 0.125 0  0.125 0.125 0  0.15625 0.125 0  0.1875 0.125 0  0.21875 0.125 0  0.25 0.125 0  0.28125 0.125 0  0.3125 0.125 0  0.34375 0.125 0  0.375 0.125 0  0.40625 0.125 0  0.4375 0.125 0  0.46875 0.125 0  0.5 0.125 0  0.53125 0.125 0  0.5625 0.125 0  0.59375 0.125 0  0.625 0.125 0  0.65625 0.125 0  0.6875 0.125 0  0.71875 0.125 0  0.75 0.125 0  0.78125 0.125 0  0.8125 0.125 0  0.84375 0.125 0  0.875 0.125 0  0.90625 0.125 0  0.9375 0.125 0  0.96875 0.125 0  1 0.125 0  0 0.15625 0  0.03125 0.15625 0  0.0625 0.15625 0  0.09375 0.15625 0  0.125 0.15625 0  0.15625 0.15625 0  0.1875 0.15625 0  0.21875 0.15625 0  0.25 0.15625 0  0.28125 0.15625 0  0.3125 0.15625 0  0.34375 0.15625 0  0.375 0.15625 0  0.40625 0.15625 0  0.4375 0.15625 0  0.46875 0.15625 0  0.5 0.15625 0  0.53125 0.15625 0  0.5625 0.15625 0  0.59375 0.15625 0  0.625 0.15625 0  0.65625 0.15625 0  0.6875 0.15625 0  0.71875 0.15625 0  0.75 0.15625 0  0.78125 0.15625 0  0.8125 0.15625 0  0.84375 0.15625 0  0.875 0.15625 0  0.90625 0.15625 0  0.9375 0.15625 0  0.96875 0.15625 0  1 0.15625 0  0 0.1875 0  0.03125 0.1875 0  0.0625 0.1875 0  0.09375 0.1875 0  0.125 0.1875 0  0.15625 0.1875 0  0.1875 0.1875 0  0.21875 0.1875 0  0.25 0.1875 0  0.28125 0.1875 0  0.3125 0.1875 0  0.34375 0.1875 0  0.375 0.1875 0  0.40625 0.1875 0  0.4375 0.1875 0  0.46875 0.1875 0  0.5 0.1875 0  0.53125 0.1875 0  0.5625 0.1875 0  0.59375 0.1875 0  0.625 0.1875 0  0.65625 0.1875 0  0.6875 0.1875 0  0.71875 0.1875 0  0.75 0.1875 0  0.78125 0.1875 0  0.8125 0.1875 0  0.84375 0.1875 0  0.875 0.1875 0  0.90625 0.1875 0  0.9375 0.1875 0  0.96875 0.1875 0  1 0.1875 0  0 0.21875 0  0.03125 0.21875 0  0.0625 0.21875 0  0.09375 0.21875 0  0.125 0.21875 0  0.15625 0.21875 0  0.1875 0.21875 0  0.21875 0.21875 0  0.25 0.21875 0  0.28125 0.21875 0  0.3125 0.21875 0  0.34375 0.21875 0  0.375 0.21875 0  0.40625 0.21875 0  0.4375 0.21875 0  0.46875 0.21875 0  0.5 0.21875 0  0.53125 0.21875 0  0.5625 0.21875 0  0.59375 0.21875 0  0.625 0.21875 0  0.65625 0.21875 0  0.6875 0.21875 0  0.71875 0.21875 0  0.75 0.21875 0  0.78125 0.21875 0  0.8125 0.21875 0  0.84375 0.21875 0  0.875 0.21875 0  0.90625 0.21875 0  0.9375 0.21875 0  0.96875 0.21875 0  1 0.21875 0  0 0.25 0  0.03125 0.25 0  0.0625 0.25 0  0.09375 0.25 0  0.125 0.25 0  0.15625 0.25 0  0.1875 0.25 0  0.21875 0.25 0  0.25 0.25 0  0.28125 0.25 0  0.3125 0.25 0  0.34375 0.25 0  0.375 0.25 0  0.40625 0.25 0  0.4375 0.25 0  0.46875 0.25 0  0.5 0.25 0  0.53125 0.25 0  0.5625 0.25 0  0.59375 0.25 0  0.625 0.25 0  0.65625 0.25 0  0.6875 0.25 0  0.71875 0.25 0  0.75 0.25 0  0.78125 0.25 0  0.8125 0.25 0  0.84375 0.25 0  0.875 0.25 0  0.90625 0.25 0  0.9375 0.25 0  0.96875 0.25 0  1 0.25 0  0 0.28125 0  0.03125 0.28125 0  0.0625 0.28125 0  0.09375 0.28125 0  0.125 0.28125 0  0.15625 0.28125 0  0.1875 0.28125 0  0.21875 0.28125 0  0.25 0.28125 0  0.28125 0.28125 0  0.3125 0.28125 0  0.34375 0.28125 0  0.375 0.28125 0  0.40625 0.28125 0  0.4375 0.28125 0  0.46875 0.28125 0  0.5 0.28125 0  0.53125 0.28125 0  0.5625 0.28125 0  0.59375 0.28125 0  0.625 0.28125 0  0.65625 0.28125 0  0.6875 0.28125 0  0.71875 0.28125 0  0.75 0.28125 0  0.78125 0.28125 0  0.8125 0.28125 0  0.84375 0.28125 0  0.875 0.28125 0  0.90625 0.28125 0  0.9375 0.28125 0  0.96875 0.28125 0  1 0.28125 0  0 0.3125 0  0.03125 0.3125 0  0.0625 0.3125 0  0.09375 0.3125 0  0.125 0.3125 0  0.15625 0.3125 0  0.1875 0.3125 0  0.21875 0.3125 0  0.25 0.3125 0  0.28125 0.3125 0  0.3125 0.3125 0  0.34375 0.3125 0  0.375 0.3125 0  0.40625 0.3125 0  0.4375 0.3125 0  0.46875 0.3125 0  0.5 0.3125 0  0.53125 0.3125 0  0.5625 0.3125 0  0.59375 0.3125 0  0.625 0.3125 0  0.65625 0.3125 0  0.6875 0.3125 0  0.71875 0.3125 0  0.75 0.3125 0  0.78125 0.3125 0  0.8125 0.3125 0  0.84375 0.3125 0  0.875 0.3125 0  0.90625 0.3125 0  0.9375 0.3125 0  0.96875 0.3125 0  1 0.3125 0  0 0.34375 0  0.03125 0.34375 0  0.0625 0.34375 0  0.09375 0.34375 0  0.125 0.34375 0  0.15625 0.34375 0  0.1875 0.34375 0  0.21875 0.34375 0  0.25 0.34375 0  0.28125 0.34375 0  0.3125 0.34375 0  0.34375 0.34375 0  0.375 0.34375 0  0.40625 0.34375 0  0.4375 0.34375 0  0.46875 0.34375 0  0.5 0.34375 0  0.53125 0.34375 0  0.5625 0.34375 0  0.59375 0.34375 0  0.625 0.34375 0  0.65625 0.34375 0  0.6875 0.34375 0  0.71875 0.34375 0  0.75 0.34375 0  0.78125 0.34375 0  0.8125 0.34375 0  0.84375 0.34375 0  0.875 0.34375 0  0.90625 0.34375 0  0.9375 0.34375 0  0.96875 0.34375 0  1 0.34375 0  0 0.375 0  0.03125 0.375 0  0.0625 0.375 0  0.09375 0.375 0  0.125 0.375 0  0.15625 0.375 0  0.1875 0.375 0  0.21875 0.375 0  0.25 0.375 0  0.28125 0.375 0  0.3125 0.375 0  0.34375 0.375 0  0.375 0.375 0  0.40625 0.375 0  0.4375 0.375 0  0.46875 0.375 0  0.5 0.375 0  0.53125 0.375 0  0.5625 0.375 0  0.59375 0.375 0  0.625 0.375 0  0.65625 0.375 0  0.6875 0.375 0  0.71875 0.375 0  0.75 0.375 0  0.78125 0.375 0  0.8125 0.375 0  0.84375 0.375 0  0.875 0.375 0  0.90625 0.375 0  0.9375 0.375 0  0.96875 0.375 0  1 0.375 0  0 0.40625 0  0.03125 0.40625 0  0.0625 0.40625 0  0.09375 0.40625 0  0.125 0.40625 0  0.15625 0.40625 0  0.1875 0.40625 0  0.21875 0.40625 0  0.25 0.40625 0  0.28125 0.40625 0  0.3125 0.40625 0  0.34375 0.40625 0  0.375 0.40625 0  0.40625 0.40625 0  0.4375 0.40625 0  0.46875 0.40625 0  0.5 0.40625 0  0.53125 0.40625 0  0.5625 0.40625 0  0.59375 0.40625 0  0.625 0.40625 0  0.65625 0.40625 0  0.6875 0.40625 0  0.71875 0.40625 0  0.75 0.40625 0  0.78125 0.40625 0  0.8125 0.40625 0  0.84375 0.40625 0  0.875 0.40625 0  0.90625 0.40625 0  0.9375 0.40625 0  0.96875 0.40625 0  1 0.40625 0  0 0.4375 0  0.03125 0.4375 0  0.0625 0.4375 0  0.09375 0.4375 0  0.125 0.4375 0  0.15625 0.4375 0  0.1875 0.4375 0  0.21875 0.4375 0  0.25 0.4375 0  0.28125 0.4375 0  0.3125 0.4375 0  0.34375 0.4375 0  0.375 0.4375 0  0.40625 0.4375 0  0.4375 0.4375 0  0.46875 0.4375 0  0.5 0.4375 0  0.53125 0.4375 0  0.5625 0.4375 0  0.59375 0.4375 0  0.625 0.4375 0  0.65625 0.4375 0  0.6875 0.4375 0  0.71875 0.4375 0  0.75 0.4375 0  0.78125 0.4375 0  0.8125 0.4375 0  0.84375 0.4375 0  0.875 0.4375 0  0.90625 0.4375 0  0.9375 0.4375 0  0.96875 0.4375 0  1 0.4375 0  0 0.46875 0  0.03125 0.46875 0  0.0625 0.46875 0  0.09375 0.46875 0  0.125 0.46875 0  0.15625 0.46875 0  0.1875 0.46875 0  0.21875 0.46875 0  0.25 0.46875 0  0.28125 0.46875 0  0.3125 0.46875 0  0.34375 0.46875 0  0.375 0.46875 0  0.40625 0.46875 0  0.4375 0.46875 0  0.46875 0.46875 0  0.5 0.46875 0  0.53125 0.46875 0  0.5625 0.46875 0  0.59375 0.46875 0  0.625 0.46875 0  0.65625 0.46875 0  0.6875 0.46875 0  0.71875 0.46875 0  0.75 0.46875 0  0.78125 0.46875 0  0.8125 0.46875 0  0.84375 0.46875 0  0.875 0.46875 0  0.90625 0.46875 0  0.9375 0.46875 0  0.96875 0.46875 0  1 0.46875 0  0 0.5 0  0.03125 0.5 0  0.0625 0.5 0  0.09375 0.5 0  0.125 0.5 0  0.15625 0.5 0  0.1875 0.5 0  0.21875 0.5 0  0.25 0.5 0  0.28125 0.5 0  0.3125 0.5 0  0.34375 0.5 0  0.375 0.5 0  0.40625 0.5 0  0.4375 0.5 0  0.46875 0.5 0  0.5 0.5 0  0.53125 0.5 0  0.5625 0.5 0  0.59375 0.5 0  0.625 0.5 0  0.65625 0.5 0  0.6875 0.5 0  0.71875 0.5 0  0.75 0.5 0  0.78125 0.5 0  0.8125 0.5 0  0.84375 0.5 0  0.875 0.5 0  0.90625 0.5 0  0.9375 0.5 0  0.96875 0.5 0  1 0.5 0  0 0.53125 0  0.03125 0.53125 0  0.0625 0.53125 0  0.09375 0.53125 0  0.125 0.53125 0  0.15625 0.53125 0  0.1875 0.53125 0  0.21875 0.53125 0  0.25 0.53125 0  0.28125 0.53125 0  0.3125 0.53125 0  0.34375 0.53125 0  0.375 0.53125 0  0.40625 0.53125 0  0.4375 0.53125 0  0.46875 0.53125 0  0.5 0.53125 0  0.53125 0.53125 0  0.5625 0.53125 0  0.59375 0.53125 0  0.625 0.53125 0  0.65625 0.53125 0  0.6875 0.53125 0  0.71875 0.53125 0  0.75 0.53125 0  0.78125 0.531
[...]
<PointData  Scalars="phi"> 
<DataArray  type="Float64"  Name="phi"  format="ascii">0.0000000000000000e+00  0.0000000000000000e+00  0.0000000000000000e+00  0.0000000000000000e+00  0.0000000000000000e+00  0.0000000000000000e+00  0.0000000000000000e+00  0.0000000000000000e+00  0.0000000000000000e+00  0.0000000000000000e+00  0.0000000000000000e+00  0.0000000000000000e+00  0.0000000000000000e+00  0.0000000000000000e+00  0.0000000000000000e+00  0.0000000000000000e+00  0.0000000000000000e+00  0.0000000000000000e+00  0.0000000000000000e+00  0.0000000000000000e+00  0.0000000000000000e+00  0.0000000000000000e+00  0.0000000000000000e+00  0.0000000000000000e+00  0.0000000000000000e+00  0.0000000000000000e+00  0.0000000000000000e+00  0.0000000000000000e+00  0.0000000000000000e+00  0.0000000000000000e+00  0.0000000000000000e+00  0.0000000000000000e+00  0.0000000000000000e+00  0.0000000000000000e+00  -5.0754004040264494e-18  1.9573844380661210e-05  7.7206340029580114e-05  1.8948184153432535e-04  3.7028598187978227e-04  6.3010929985663909e-04  9.7548523279964924e-04  1.4085871339498822e-03  1.9270018906604274e-03  2.5236905045337389e-03  3.1871385719118937e-03  3.9016921360711869e-03  4.6480671119296163e-03  5.4040136710894549e-03  6.1451108740967894e-03  6.8456616798630073e-03  7.4796544472718642e-03  8.0217543265102952e-03  8.4482866240919805e-03  8.7381743693525915e-03  8.8737939101681471e-03  8.8417153669067168e-03  8.6332990718839698e-03  8.2451245719279819e-03  7.6792352051821069e-03  6.9431885212480181e-03  6.0499108274329142e-03  5.0173631495894939e-03  3.8680370890281277e-03  2.6283167780459232e-03  1.3277827377761783e-03  0.0000000000000000e+00  0.0000000000000000e+00  -1.9573844380674105e-05  -5.6607841120016964e-18  9.5676266677693502e-05  3.0064572998603098e-04  6.4273359227730417e-04  1.1430063277952682e-03  1.8146485984905448e-03  2.6621576790533119e-03  3.6808898649028665e-03  4.8569793337341644e-03  6.1676352798267133e-03  7.5818083215728289e-03  9.0612027253035819e-03  1.0561597429084741e-02  1.2034426701829982e-02  1.3428561000373733e-02  1.4692220585583740e-02  1.5774949038270029e-02  1.6629571188852950e-02  1.7214060247856777e-02  1.7493242094201431e-02  1.7440270633827935e-02  1.7037816670160924e-02  1.6278923530524778e-02  1.5167495404399940e-02  1.3718398578758773e-02  1.1957171148577608e-02  9.9193531328686871e-03  7.6494663536631150e-03  5.1996924116118311e-03  2.6283167780459310e-03  0.0000000000000000e+00  0.0000000000000000e+00  -7.7206340029580236e-05  -9.5676266677672441e-05  4.3868478999586655e-17  2.5964026161112794e-04  7.2508282781731800e-04  1.4281031488389158e-03  2.3887348371904645e-03  3.6140643845386277e-03  5.0975503420498478e-03  6.8188972344367209e-03  8.7444928265624604e-03  1.0828395376562513e-02  1.3013836022972017e-02  1.5235181283520848e-02  1.7420282562520043e-02  1.9493124267633666e-02  2.1376670216034011e-02  2.2995799927035803e-02  2.4280222469639755e-02  2.5167255917017031e-02  2.5604365149896616e-02  2.5551359578303911e-02  2.4982164992644978e-02  2.3886099747676363e-02  2.2268604245713596e-02  2.0151393547036715e-02  1.7572025158234215e-02  1.4582896823544744e-02  1.1249711452881570e-02  7.6494663536631532e-03  3.8680370890281585e-03  0.0000000000000000e+00  0.0000000000000000e+00  -1.8948184153429014e-04  -3.0064572998593286e-04  -2.5964026161090753e-04  2.1435741583052811e-16  5.3421792837407989e-04  1.3856738283214006e-03  2.5815203980521554e-03  4.1318033592820588e-03  6.0285543616315929e-03  8.2456159570202647e-03  1.0739210012638611e-02  1.3449232005874395e-02  1.6301225342615834e-02  1.9208963254258155e-02  2.2077541984492518e-02  2.4806868795734117e-02  2.7295412588045347e-02  2.9444074241807408e-02  3.1160028586833477e-02  3.2360390373214691e-02  3.2975562763681347e-02  3.2952138457569162e-02  3.2255240158535203e-02  3.0870208086174161e-02  2.8803566809794942e-02  2.6083230907289943e-02  2.2757937744083415e-02  1.8895924788489758e-02  1.4582896823544852e-02  9.9193531328688085e-03  5.0173631495895703e-03  0.0000000000000000e+00  0.0000000000000000e+00  -3.7028598187968317e-04  -6.4273359227707248e-04  -7.2508282781688161e-04  -5.3421792837333440e-04  5.9282219232546357e-16  9.3131634107818670e-04  2.2943264299191872e-03  4.1024907039339496e-03  6.3470035354566620e-03  8.9965648018236009e-03  1.1998068294076640e-02  1.5278185468492876e-02  1.8745788193769791e-02  2.2295121392936060e-02  2.5809607091330636e-02  2.9166136498172412e-02  3.2239687333754152e-02  3.4908090421401174e-02  3.7056763108286435e-02  3.8583227618447853e-02  3.9401239962621668e-02  3.9444369251891091e-02  3.8668887646082249e-02  3.7055856933749722e-02  3.4612327894194425e-02  3.1371601952299849e-02  2.7392539861151699e-02  2.2757937744083634e-02  1.7572025158234514e-02  1.1957171148577868e-02  6.0499108274330634e-03  0.0000000000000000e+00  0.0000000000000000e+00  -6.3010929985644318e-04  -1.1430063277948377e-03  -1.4281031488381675e-03  -1.3856738283202137e-03  -9.3131634107640937e-04  1.2712448805270218e-15  1.4506656464819679e-03  3.4380721702720607e-03  5.9532606895477671e-03  8.9606353749167606e-03  1.2398758864592810e-02  1.6182204470532695e-02  2.0204398977414086e-02  2.4341351217171955e-02  2.8456126940203500e-02  3.2403901143174187e-02  3.6037396090858757e-02  3.9212497675907579e-02  4.1793835104106544e-02  4.3660109476468617e-02  4.4708965648977118e-02  4.4861218454380715e-02  4.4064268330923723e-02  4.2294571699922151e-02  3.9559066895798009e-02  3.5895495694071973e-02  3.1371601952300224e-02  2.6083230907290506e-02  2.0151393547037294e-02  1.3718398578759236e-02  6.9431885212482723e-03  0.0000000000000000e+00  0.0000000000000000e+00  -9.7548523279932084e-04  -1.8146485984898448e-03  -2.3887348371893001e-03  -2.5815203980503907e-03  -2.2943264299166541e-03  -1.4506656464784722e-03  2.3343627014419504e-15  2.0795416791267165e-03  4.7795970000459233e-03  8.0612208687835772e-03  1.1855773427122606e-02  1.6067016700102386e-02  2.0574344648072718e-02  2.5237027190468497e-02  2.9899309151033778e-02  3.4396171502400839e-02  3.8559536062645984e-02  4.2224676935570762e-02  4.5236593185829878e-02  4.7456097846688750e-02  4.8765388356861804e-02  4.9072882536089560e-02  4.8317131510930408e-02  4.6469655544955767e-02  4.3536589180284663e-02  3.9559066895798606e-02  3.4612327894195362e-02  2.8803566809795997e-02  2.2268604245714571e-02  1.5167495404400676e-02  7.6792352051825025e-03  0.0000000000000000e+00  0.0000000000000000e+00  -1.4085871339493843e-03  -2.6621576790522698e-03  -3.6140643845369393e-03  -4.1318033592795782e-03  -4.1024907039304941e-03  -3.4380721702674186e-03  -2.0795416791206623e-03  3.8477091317932257e-15  2.7935705528494888e-03  6.2598900888666403e-03  1.0324345989497840e-02  1.4881307411568840e-02  1.9797705873533709e-02  2.4917749122218700e-02  3.0068591269470552e-02  3.5066744712309507e-02  3.9724990057847374e-02  4.3859520301214240e-02  4.7297045628167347e-02  4.9881585822465518e-02  5.1480688336403783e-02  5.1990831212789530e-02  5.1341800422309035e-02  4.9499869639110891e-02  4.6469655544956620e-02  4.2294571699923560e-02  3.7055856933751401e-02  3.0870208086175847e-02  2.3886099747677837e-02  1.6278923530525860e-02  8.2451245719285561e-03  0.0000000000000000e+00  0.0000000000000000e+00  -1.9270018906597246e-03  -3.6808898649014110e-03  -5.0975503420475320e-03  -6.0285543616282614e-03  -6.3470035354521205e-03  -5.9532606895417936e-03  -4.7795970000382784e-03  -2.7935705528399327e-03  5.8484777082011285e-15  3.5585488986030361e-03  7.8027886629311160e-03  1.2619213760245917e-02  1.7863991627441358e-02  2.3368096250675811e-02  2.8943491115250047e-02  3.4390127303543398e-02  3.9503490425064465e-02  4.4082408153507086e-02  4.7936819272439465e-02  5.0895205720720954e-02  5.2811401166903152e-02  5.3570512674403041e-02  5.3093725169081459e-02  5.1341800422310173e-02  4.8317131510932365e-02  4.4064268330926158e-02  3.8668887646084844e-02  3.2255240158537667e-02  2.4982164992647059e-02  1.7037816670162423e-02  8.6332990718847539e-03  0.0000000000000000e+00  0.0000000000000000e+00  -2.5236905045327982e-03  -4.8569793337322311e-03  -6.8188972344336816e-03  -8.2456159570159591e-03  -8.9965648018178260e-03  -8.9606353749092857e-03  -8.0612208687741577e-03  -6.2598900888550264e-03  -3.5585488985889970e-03  8.3341861422980099e-15  4.3331262521526959e-03  9.3210343683272929e-03  1.4810922277006571e-02  2.0622480603602396e-02  2.6554525248073592e-02  3.2392511619050643e-02  3.7916644280763474e-02  4.2910272119276213e-02  4.7168247354174728e-02  5.0504927272317375e-02  5.2761510429104305e-02  5.3812423764342490e-02  5.3570512674404498e-02  5.1990831212792091e-02  4.9072882536092856e-02  4.4861218454384379e-02  3.9444369251894776e-02  3.2952138457572541e-02  2.5551359578306697e-02  1.7440270633829920e-02  8.8417153669077455e-03  0.0000000000000000e+00  0.0000000000000000e+00  -3.1871385719106863e-03  -6.1676352798242448e-03  -8.7444928265586162e-03  -1.0739210012633225e-02  -1.1998068294069507e-02  -1.2398758864583692e-02  -1.1855773427111260e-02  -1.0324345989484012e-02  -7.8027886629145737e-03  -4.3331262521332410e-03  1.1259050686627307e-14  5.0721223413961441e-03  1.0723327472678368e-02  1.6764064300258397e-02  2.2982158877987779e-02  2.9150769953652823e-02  3.5036981746108267e-02  4.0410705402138376e-02  4.5053547994077237e-02  4.8767308411690760e-02  5.1381773064267104e-02  5.2761510429106082e-02  5.2811401166906351e-02  5.1480688336408009e-02  4.8765388356866654e-02  4.4708965648982191e-02  3.9401239962626573e-02  3.2975562763685740e-02  2.5604365149900186e-02  1.7493242094203949e-02  8.8737939101694481e-03  0.0000000000000000e+00  0.0000000000000000e+00  -3.9016921360696902e-03  -7.5818083215697819e-03  -1.0828395376557800e-02  -1.3449232005867850e-02  -1.5278185468484289e-02  -1.6182204470521835e-02  -1.6067016700089001e-02  -1.4881307411552686e-02  -1.2619213760226764e-02  -9.3210343683049514e-03  -5.0721223413704754e-03  1.4532323212568420e-14  5.7301977584088932e-03  1.1921779942290836e-02  1.8353826190192803e-02  2.4789504824639867e-02  3.0985064687798606e-02  3.6699156736979474e-02  4.1702128091077033e-02  4.5784931636205332e-02  4.8767308411692835e-02  5.0504927272321198e-02  5.0895205720726124e-02  4.9881585822471611e-02  4.7456097846695328e-02  4.3660109476475237e-02  3.8583227618454105e-02  3.2360390373220194e-02  2.5167255917021458e-02  1.7214060247859875e-02  8.7381743693541840e-03  0.0000000000000000e+00  0.0000000000000000e+00  -4.6480671119278165e-03  -9.0612027252999286e-03  -1.3013836022966397e-02  -1.6301225342608080e-02  -1.8745788193759699e-02  -2.0204398977401422e-02  -2.0574344648057241e-02  -1.9797705873515179e-02  -1.7863991627419553e-02  -1.4810922276981315e-02  -1.0723327472649539e-02  -5.7301977583764374e-03  1.8024465770422401e-14  6.2655662678542060e-03  1.2839134229253970e-02  1.9476268393745957e-02  2.5924767785382611e-02  3.1934317551885257e-02  3.7266118962609528e-02  4.1702128091079378e-02  4.5053547994081629e-02  4.7168247354180799e-02  4.7936819272446779e-02  4.7297045628175452e-02  4.5236593185838302e-02  4.1793835104114808e-02  3.7056763108294109e-02  3.1160028586840142e-02  2.4280222469645080e-02  1.6629571188856652e-02  8.4482866240938783e-03  0.0000000000000000e+00  0.0000000000000000e+00  -5.4040136710873472e-03  -1.0561597429080473e-02  -1.5235181283514310e-02  -1.9208963254249176e-02  -2.2295121392924444e-02  -2.4341351217157477e-02  -2.5237027190450925e-02  -2.4917749122197803e-02  -2.3368096250651386e-02  -2.0622480603574279e-02  -1.6764064300226478e-02  -1.1921779942255090e-02  -6.2655662678146908e-03  2.1565305961619941e-14  6.6434333394615411e-03  1.3415134335935228e-02  2.0056913767145964e-02  2.6311881005595780e-02  3.1934317551887817e-02  3.6699156736984359e-02  4.0410705402145246e-02  4.2910272119284651e-02  4.4082408153516654e-02  4.3859520301224440e-02  4.2224676935581094e-02  3.9212497675917543e-02  3.4908090421410298e-02  2.9444074241815263e-02  2.2995799927042034e-02  1.5774949038274349e-02  8.0217543265125035e-03  0.0000000000000000e+00  0.0000000000000000e+00  -6.1451108740943772e-03  -1.2034426701825109e-02  -1.7420282562512601e-02  -2.2077541984482345e-02  -2.5809607091317542e-02  -2.8456126940187267e-02  -2.9899309151014183e-02  -3.0068591269447380e-02  -2.8943491115223121e-02  -2.6554525248042748e-02  -2.2982158877952939e-02  -1.8353826190153966e-02  -1.2839134229211216e-02  -6.6434333394150549e-03  2.4965655475351902e-14  6.8388686898044884e-03  1.3611507682056179e-02  2.0056913767148684e-02  2.5924767785387871e-02  3.0985064687806124e-02  3.5036981746117683e-02  3.7916644280774348e-02  3.9503490425076310e-02  3.9724990057859684e-02  3.8559536062658224e-02  3.6037396090870408e-02  3.2239687333764713e-02  2.7295412588054381e-02  2.1376670216041137e-02  1.4692220585588663e-02  7.4796544472743752e-03  0.0000000000000000e+00  0.0000000000000000e+00  -6.8456616798603081e-03  -1.3428561000368286e-02  -1.9493124267625367e-02  -2.4806868795722817e-02  -2.9166136498157927e-02  -3.2403901143156312e-02  -3.4396171502379363e-02  -3.5066744712284242e-02  -3.4390127303514165e-02  -3.2392511619017308e-02  -2.9150769953615333e-02  -2.4789504824598237e-02  -1.9476268393700299e-02  -1.3415134335885752e-02  -6.8388686897515108e-03  2.8024532792879175e-14  6.8388686898072908e-03  1.3415134335940725e-02  1.9476268393753937e-02  2.4789504824650022e-02  2.9150769953664765e-02  3.2392511619063910e-02  3.4390127303557477e-02  3.5066744712323870e-02  3.4396171502414918e-02  3.2403901143187454e-02  2.9166136498184357e-02  2.4806868795744272e-02  1.9493124267641646e-02  1.3428561000379226e-02  6.8456616798658080e-03  0.0000000000000000e+00  0.0000000000000000e+00  -7.4796544472689021e-03  -1.4692220585577774e-02  -2.1376670216024938e-02  -2.7295412588033030e-02  -3.2239687333738415e-02  -3.6037396090839412e-02  -3.8559536062622829e-02  -3.9724990057820243e-02  -3.9503490425033198e-02  -3.7916644280727975e-02  -3.5036981746068487e-02  -3.0985064687754589e-02  -2.5924767785334490e-02  -2.0056913767093974e-02  -1.3611507682000666e-02  -6.8388686897487092e-03  3.0544841474112745e-14  6.6434333394697620e-03  1.2839134229264595e-02  1.8353826190205497e-02  2.2982158878002132e-02  2.6554525248089121e-02  2.8943491115266229e-02  3.0068591269486820e-02  2.9899309151049568e-02  2.8456126940218256e-02  2.5809607091343844e-02  2.2077541984503700e-02  1.7420282562528797e-02  1.2034426701835998e-02  6.1451108740998503e-03  0.0000000000000000e+00  0.0000000000000000e+00  -8.0217543265071103e-03  -1.5774949038263618e-02  -2.2995799927026068e-02  -2.9444074241794217e-02  -3.4908090421384368e-02  -3.9212497675886991e-02  -4.2224676935546213e-02  -4.3859520301185569e-02  -4.4082408153474160e-02  -4.2910272119238944e-02  -4.0410705402096757e-02  -3.6699156736933566e-02  -3.1934317551835213e-02  -2.6311881005541861e-02  -2.0056913767091254e-02  -1.3415134335880256e-02  -6.6434333394068340e-03  3.2349900691951358e-14  6.2655662678672945e-03  1.1921779942305876e-02  1.6764064300274956e-02  2.0622480603619982e-02  2.3368096250693877e-02  2.4917749122236672e-02  2.5237027190485796e-02  2.4341351217188022e-02  2.2295121392950364e-02  1.9208963254270222e-02  1.5235181283530273e-02  1.0561597429091204e-02  5.4040136710927413e-03  0.0000000000000000e+00  0.0000000000000000e+00  -8.4482866240886152e-03  -1.6629571188846184e-02  -2.4280222469629503e-02  -3.1160028586819606e-02  -3.7056763108268810e-02  -4.1793835104084999e-02  -4.5236593185804259e-02  -4.7297045628137517e-02  -4.7936819272405312e-02  -4.7168247354136196e-02  -4.5053547994034319e-02  -4.1702128091029821e-02  -3.7266118962558194e-02  -3.1934317551832646e-02  -2.5924767785329230e-02  -1.9476268393692320e-02  -1.2839134229200591e-02  -6.2655662678016005e-03  3.3300727144774293e-14  5.7301977584259889e-03  1.0723327472696838e-02  1.4810922277025906e-02  1.7863991627461009e-02  1.9797705873553100e-02  2.0574344648091266e-02  2.0204398977431221e-02  1.8745788193784987e-02  1.6301225342628616e-02  1.3013836022981973e-02  9.0612027253104011e-03  4.6480671119330805e-03  0.0000000000000000e+00  0.0000000000000000e+00  -8.7381743693491047e-03  -1.7214060247849765e-02  -2.5167255917006418e-02  -3.2360390373200362e-02  -3.8583227618429680e-02  -4.3660109476446461e-02  -4.7456097846662465e-02  -4.9881585822434987e-02  -5.0895205720686086e-02  -5.0504927272278136e-02  -4.8767308411647156e-02  -4.5784931636157482e-02  -4.1702128091027468e-02  -3.6699156736928681e-02  -3.0985064687747067e-02  -2.4789504824588079e-02  -1.8353826190141267e-02  -1.1921779942240047e-02  -5.7301977583593400e-03  3.3307054431832550e-14  5.0721223414161411e-03  9.3210343683480055e-03  1.2619213760266791e-02  1.4881307411589301e-02  1.6067016700121853e-02  1.6182204470550608e-02  1.5278185468508707e-02  1.3449232005887674e-02  1.0828395376572842e-02  7.5818083215798927e-03  3.9016921360747730e-03  0.0000000000000000e+00  0.0000000000000000e+00  -8.8737939101645978e-03  -1.7493242094194304e-02  -2.5604365149885833e-02  -3.2975562763666810e-02  -3.9401239962603259e-02  -4.4708965648954720e-02  -4.8765388356835290e-02  -5.1480688336373051e-02  -5.2811401166868138e-02  -5.2761510429064976e-02  -5.1381773064223507e-02  -4.8767308411645081e-02  -4.5053547994029920e-02  -4.0410705402089887e-02  -3.5036981746059070e-02  -2.9150769953603387e-02  -2.2982158877938582e-02  -1.6764064300209911e-02  -1.0723327472631064e-02  -5.0721223413504749e-03  3.2335516382332523e-14  4.3331262521743409e-03  7.8027886629527844e-03  1.0324345989518967e-02  1.1855773427142623e-02  1.2398758864611163e-02  1.1998068294092818e-02  1.0739210012652153e-02  8.7444928265729763e-03  6.1676352798338985e-03  3.1871385719155392e-03  0.0000000000000000e+00  0.0000000000000000e+00  -8.8417153669031762e-03  -1.7440270633820823e-02  -2.5551359578293169e-02  -3.2952138457554694e-02  -3.9444369251872793e-02  -4.4861218454358483e-02  -4.9072882536063282e-02  -5.1990831212759131e-02  -5.3570512674368465e-02  -5.3812423764303736e-02  -5.2761510429063199e-02  -5.0504927272274319e-02  -4.7168247354130124e-02  -4.2910272119230500e-02  -3.7916644280717095e-02  -3.2392511619004034e-02  -2.6554525248027205e-02  -2.0622480603556686e-02  -1.4810922276961971e-02  -9.3210343682842353e-03  -4.3331262521115934e-03  3.0418452132609316e-14  3.5585488986250267e-03  6.2598900888879878e-03  8.0612208688037312e-03  8.9606353749351886e-03  8.9965648018398084e-03  8.2456159570338059e-03  6.8188972344472229e-03  4.8569793337413340e-03  2.5236905045373744e-03  0.0000000000000000e+00  0.0000000000000000e+00  -8.6332990718805073e-03  -1.7037816670153971e-02  -2.4982164992634483e-02  -3.2255240158521083e-02  -3.8668887646064409e-02  -4.4064268330902080e-02  -4.8317131510904873e-02  -5.1341800422279531e-02  -5.3093725169047951e-02  -5.3570512674367007e-02  -5.2811401166864939e-02  -5.0895205720680924e-02  -4.7936819272397999e-02  -4.4082408153464592e-02  -3.9503490425021340e-02  -3.4390127303500065e-02  -2.8943491115206922e-02  -2.3368096250633311e-02  -1.7863991627399892e-02  -1.2619213760205885e-02  -7.8027886628929000e-03  -3.5585488985670046e-03  2.7651972548300649e-14  2.7935705528705805e-03  4.7795970000657781e-03  5.9532606895658794e-03  6.3470035354725608e-03  6.0285543616448584e-03  5.0975503420601252e-03  3.6808898649098778e-03  1.9270018906639810e-03  0.0000000000000000e+00  0.0000000000000000e+00  -8.2451245719246721e-03  -1.6278923530518134e-02  -2.3886099747666339e-02  -3.0870208086160686e-02  -3.7055856933732714e-02  -4.2294571699901543e-02  -4.6469655544931474e-02  -4.9499869639082865e-02  -5.1341800422278400e-02  -5.1990831212756577e-02  -5.1480688336368832e-02  -4.9881585822428902e-02  -4.7297045628129426e-02  -4.3859520301175368e-02  -3.9724990057807927e-02  -3.5066744712269872e-02  -3.0068591269431101e-02  -2.4917749122179821e-02  -1.9797705873495778e-02  -1.4881307411532218e-02  -1.0324345989462878e-02  -6.2598900888336763e-03  -2.7935705528188397e-03  2.4191753297380198e-14  2.0795416791458219e-03  3.43807