<?xml version="1.0"?>
<VTKFile type="UnstructuredGrid"  version="0.1"  >
<UnstructuredGrid>
<Piece  NumberOfPoints="1089" NumberOfCells="2048">
<Points>
<DataArray  type="Float64"  NumberOfComponents="3"  format="ascii">0 0 0  0.03125 0 0  0.0625 0 0  0.09375 0 0  0.125 0 0  0.15625 0 0  0.1875 0 0  0.21875 0 0  0.25 0 0  0.28125 0 0  0.3125 0 0  0.34375 0 0  0.375 0 0  0.40625 0 0  0.4375 0 0  0.46875 0 0  0.5 0 0  0.53125 0 0  0.5625 0 0  0.59375 0 0  0.625 0 0  0.65625 0 0  0.6875 0 0  0.71875 0 0  0.75 0 0  0.78125 0 0  0.8125 0 0  0.84375 0 0  0.875 0 0  0.90625 0 0  0.9375 0 0  0.96875 0 0  1 0 0  0 0.03125 0  0.03125 0.03125 0  0.0625 0.03125 0  0.09375 0.03125 0  0.125 0.03125 0  0.15625 0.03125 0  0.1875 0.03125 0  0.21875 0.03125 0  0.25 0.03125 0  0.28125 0.03125 0  0.3125 0.03125 0  0.34375 0.03125 0  0.375 0.03125 0  0.40625 0.03125 0  0.4375 0.03125 0  0.46875 0.03125 0  0.5 0.03125 0  0.53125 0.03125 0  0.5625 0.03125 0  0.59375 0.03125 0  0.625 0.03125 0  0.65625 0.03125 0  0.6875 0.03125 0  0.71875 0.03125 0  0.75 0.03125 0  0.78125 0.03125 0  0.8125 0.03125 0  0.84375 0.03125 0  0.875 0.03125 0  0.90625 0.03125 0  0.9375 0.03125 0  0.96875 0.03125 0  1 0.03125 0  0 0.0625 0  0.03125 0.0625 0  0.0625 0.0625 0  0.09375 0.0625 0  0.125 0.0625 0  0.15625 0.0625 0  0.1875 0.0625 0  0.21875 0.0625 0  0.25 0.0625 0  0.28125 0.0625 0  0.3125 0.0625 0  0.34375 0.0625 0  0.375 0.0625 0  0.40625 0.0625 0  0.4375 0.0625 0  0.46875 0.0625 0  0.5 0.0625 0  0.53125 0.0625 0  0.5625 0.0625 0  0.59375 0.0625 0  0.625 0.0625 0  0.65625 0.0625 0  0.6875 0.0625 0  0.71875 0.0625 0  0.75 0.0625 0  0.78125 0.0625 0  0.8125 0.0625 0  0.84375 0.0625 0  0.875 0.0625 0  0.90625 0.0625 0  0.9375 0.0625 0  0.96875 0.0625 0  1 0.0625 0  0 0.09375 0  0.03125 0.09375 0  0.0625 0.09375 0  0.09375 0.09375 0  0.125 0.09375 0  0.15625 0.09375 0  0.1875 0.09375 0  0.21875 0.09375 0  0.25 0.09375 0  0.28125 0.09375 0  0.3125 0.09375 0  0.34375 0.09375 0  0.375 0.09375 0  0.40625 0.09375 0  0.4375 0.09375 0  0.46875 0.09375 0  0.5 0.09375 0  0.53125 0.09375 0  0.5625 0.09375 0  0.59375 0.09375 0  0.625 0.09375 0  0.65625 0.09375 0  0.6875 0.09375 0  0.71875 0.09375 0  0.75 0.09375 0  0.78125 0.09375 0  0.8125 0.09375 0  0.84375 0.09375 0  0.875 0.09375 0  0.90625 0.09375 0  0.9375 0.09375 0  0.96875 0.09375 0  1 0.09375 0  0 0.125 0  0.03125 0.125 0  0.0625 0.125 0  0.09375 0.125 0  0.125 0.125 0  0.15625 0.125 0  0.1875 0.125 0  0.21875 0.125 0  0.25 0.125 0  0.28125 0.125 0  0.3125 0.125 0  0.34375 0.125 0  0.375 0.125 0  0.40625 0.125 0  0.4375 0.125 0  0.46875 0.125 0  0.5 0.125 0  0.53125 0.125 0  0.5625 0.125 0  0.59375 0.125 0  0.625 0.125 0  0.65625 0.125 0  0.6875 0.125 0  0.71875 0.125 0  0.75 0.125 0  0.78125 0.125 0  0.8125 0.125 0  0.84375 0.125 0  0.875 0.125 0  0.90625 0.125 0  0.9375 0.125 0  0.96875 0.125 0  1 0.125 0  0 0.15625 0  0.03125 0.15625 0  0.0625 0.15625 0  0.09375 0.15625 0  0.125 0.15625 0  0.15625 0.15625 0  0.1875 0.15625 0  0.21875 0.15625 0  0.25 0.15625 0  0.28125 0.15625 0  0.3125 0.15625 0  0.34375 0.15625 0  0.375 0.15625 0  0.40625 0.15625 0  0.4375 0.15625 0  0.46875 0.15625 0  0.5 0.15625 0  0.53125 0.15625 0  0.5625 0.15625 0  0.59375 0.15625 0  0.625 0.15625 0  0.65625 0.15625 0  0.6875 0.15625 0  0.71875 0.15625 0  0.75 0.15625 0  0.78125 0.15625 0  0.8125 0.15625 0  0.84375 0.15625 0  0.875 0.15625 0  0.90625 0.15625 0  0.9375 0.15625 0  0.96875 0.15625 0  1 0.15625 0  0 0.1875 0  0.03125 0.1875 0  0.0625 0.1875 0  0.09375 0.1875 0  0.125 0.1875 0  0.15625 0.1875 0  0.1875 0.1875 0  0.21875 0.1875 0  0.25 0.1875 0  0.28125 0.1875 0  0.3125 0.1875 0  0.34375 0.1875 0  0.375 0.1875 0  0.40625 0.1875 0  0.4375 0.1875 0  0.46875 0.1875 0  0.5 0.1875 0  0.53125 0.1875 0  0.5625 0.1875 0  0.59375 0.1875 0  0.625 0.1875 0  0.65625 0.1875 0  0.6875 0.1875 0  0.71875 0.1875 0  0.75 0.1875 0  0.78125 0.1875 0  0.8125 0.1875 0  0.84375 0.1875 0  0.875 0.1875 0  0.90625 0.1875 0  0.9375 0.1875 0  0.96875 0.1875 0  1 0.1875 0  0 0.21875 0  0.03125 0.21875 0  0.0625 0.21875 0  0.09375 0.21875 0  0.125 0.21875 0  0.15625 0.21875 0  0.1875 0.21875 0  0.21875 0.21875 0  0.25 0.21875 0  0.28125 0.21875 0  0.3125 0.21875 0  0.34375 0.21875 0  0.375 0.21875 0  0.40625 0.21875 0  0.4375 0.21875 0  0.46875 0.21875 0  0.5 0.21875 0  0.53125 0.21875 0  0.5625 0.21875 0  0.59375 0.21875 0  0.625 0.21875 0  0.65625 0.21875 0  0.6875 0.21875 0  0.71875 0.21875 0  0.75 0.21875 0  0.78125 0.21875 0  0.8125 0.21875 0  0.84375 0.21875 0  0.875 0.21875 0  0.90625 0.21875 0  0.9375 0.21875 0  0.96875 0.21875 0  1 0.21875 0  0 0.25 0  0.03125 0.25 0  0.0625 0.25 0  0.09375 0.25 0  0.125 0.25 0  0.15625 0.25 0  0.1875 0.25 0  0.21875 0.25 0  0.25 0.25 0  0.28125 0.25 0  0.3125 0.25 0  0.34375 0.25 0  0.375 0.25 0  0.40625 0.25 0  0.4375 0.25 0  0.46875 0.25 0  0.5 0.25 0  0.53125 0.25 0  0.5625 0.25 0  0.59375 0.25 0  0.625 0.25 0  0.65625 0.25 0  0.6875 0.25 0  0.71875 0.25 0  0.75 0.25 0  0.78125 0.25 0  0.8125 0.25 0  0.84375 0.25 0  0.875 0.25 0  0.90625 0.25 0  0.9375 0.25 0  0.96875 0.25 0  1 0.25 0  0 0.28125 0  0.03125 0.28125 0  0.0625 0.28125 0  0.09375 0.28125 0  0.125 0.28125 0  0.15625 0.28125 0  0.1875 0.28125 0  0.21875 0.28125 0  0.25 0.28125 0  0.28125 0.28125 0  0.3125 0.28125 0  0.34375 0.28125 0  0.375 0.28125 0  0.40625 0.28125 0  0.4375 0.28125 0  0.46875 0.28125 0  0.5 0.28125 0  0.53125 0.28125 0  0.5625 0.28125 0  0.59375 0.28125 0  0.625 0.28125 0  0.65625 0.28125 0  0.6875 0.28125 0  0.71875 0.28125 0  0.75 0.28125 0  0.78125 0.28125 0  0.8125 0.28125 0  0.84375 0.28125 0  0.875 0.28125 0  0.90625 0.28125 0  0.9375 0.28125 0  0.96875 0.28125 0  1 0.28125 0  0 0.3125 0  0.03125 0.3125 0  0.0625 0.3125 0  0.09375 0.3125 0  0.125 0.3125 0  0.15625 0.3125 0  0.1875 0.3125 0  0.21875 0.3125 0  0.25 0.3125 0  0.28125 0.3125 0  0.3125 0.3125 0  0.34375 0.3125 0  0.375 0.3125 0  0.40625 0.3125 0  0.4375 0.3125 0  0.46875 0.3125 0  0.5 0.3125 0  0.53125 0.3125 0  0.5625 0.3125 0  0.59375 0.3125 0  0.625 0.3125 0  0.65625 0.3125 0  0.6875 0.3125 0  0.71875 0.3125 0  0.75 0.3125 0  0.78125 0.3125 0  0.8125 0.3125 0  0.84375 0.3125 0  0.875 0.3125 0  0.90625 0.3125 0  0.9375 0.3125 0  0.96875 0.3125 0  1 0.3125 0  0 0.34375 0  0.03125 0.34375 0  0.0625 0.34375 0  0.09375 0.34375 0  0.125 0.34375 0  0.15625 0.34375 0  0.1875 0.34375 0  0.21875 0.34375 0  0.25 0.34375 0  0.28125 0.34375 0  0.3125 0.34375 0  0.34375 0.34375 0  0.375 0.34375 0  0.40625 0.34375 0  0.4375 0.34375 0  0.46875 0.34375 0  0.5 0.34375 0  0.53125 0.34375 0  0.5625 0.34375 0  0.59375 0.34375 0  0.625 0.34375 0  0.65625 0.34375 0  0.6875 0.34375 0  0.71875 0.34375 0  0.75 0.34375 0  0.78125 0.34375 0  0.8125 0.34375 0  0.84375 0.34375 0  0.875 0.34375 0  0.90625 0.34375 0  0.9375 0.34375 0  0.96875 0.34375 0  1 0.34375 0  0 0.375 0  0.03125 0.375 0  0.0625 0.375 0  0.09375 0.375 0  0.125 0.375 0  0.15625 0.375 0  0.1875 0.375 0  0.21875 0.375 0  0.25 0.375 0  0.28125 0.375 0  0.3125 0.375 0  0.34375 0.375 0  0.375 0.375 0  0.40625 0.375 0  0.4375 0.375 0  0.46875 0.375 0  0.5 0.375 0  0.53125 0.375 0  0.5625 0.375 0  0.59375 0.375 0  0.625 0.375 0  0.65625 0.375 0  0.6875 0.375 0  0.71875 0.375 0  0.75 0.375 0  0.78125 0.375 0  0.8125 0.375 0  0.84375 0.375 0  0.875 0.375 0  0.90625 0.375 0  0.9375 0.375 0  0.96875 0.375 0  1 0.375 0  0 0.40625 0  0.03125 0.40625 0  0.0625 0.40625 0  0.09375 0.40625 0  0.125 0.40625 0  0.15625 0.40625 0  0.1875 0.40625 0  0.21875 0.40625 0  0.25 0.40625 0  0.28125 0.40625 0  0.3125 0.40625 0  0.34375 0.40625 0  0.375 0.40625 0  0.40625 0.40625 0  0.4375 0.40625 0  0.46875 0.40625 0  0.5 0.40625 0  0.53125 0.40625 0  0.5625 0.40625 0  0.59375 0.40625 0  0.625 0.40625 0  0.65625 0.40625 0  0.6875 0.40625 0  0.71875 0.40625 0  0.75 0.40625 0  0.78125 0.40625 0  0.8125 0.40625 0  0.84375 0.40625 0  0.875 0.40625 0  0.90625 0.40625 0  0.9375 0.40625 0  0.96875 0.40625 0  1 0.40625 0  0 0.4375 0  0.03125 0.4375 0  0.0625 0.4375 0  0.09375 0.4375 0  0.125 0.4375 0  0.15625 0.4375 0  0.1875 0.4375 0  0.21875 0.4375 0  0.25 0.4375 0  0.28125 0.4375 0  0.3125 0.4375 0  0.34375 0.4375 0  0.375 0.4375 0  0.40625 0.4375 0  0.4375 0.4375 0  0.46875 0.4375 0  0.5 0.4375 0  0.53125 0.4375 0  0.5625 0.4375 0  0.59375 0.4375 0  0.625 0.4375 0  0.65625 0.4375 0  0.6875 0.4375 0  0.71875 0.4375 0  0.75 0.4375 0  0.78125 0.4375 0  0.8125 0.4375 0  0.84375 0.4375 0  0.875 0.4375 0  0.90625 0.4375 0  0.9375 0.4375 0  0.96875 0.4375 0  1 0.4375 0  0 0.46875 0  0.03125 0.46875 0  0.0625 0.46875 0  0.09375 0.46875 0  0.125 0.46875 0  0.15625 0.46875 0  0.1875 0.46875 0  0.21875 0.46875 0  0.25 0.46875 0  0.28125 0.46875 0  0.3125 0.46875 0  0.34375 0.46875 0  0.375 0.46875 0  0.40625 0.46875 0  0.4375 0.46875 0  0.46875 0.46875 0  0.5 0.46875 0  0.53125 0.46875 0  0.5625 0.46875 0  0.59375 0.46875 0  0.625 0.46875 0  0.65625 0.46875 0  0.6875 0.46875 0  0.71875 0.46875 0  0.75 0.46875 0  0.78125 0.46875 0  0.8125 0.46875 0  0.84375 0.46875 0  0.875 0.46875 0  0.90625 0.46875 0  0.9375 0.46875 0  0.96875 0.46875 0  1 0.46875 0  0 0.5 0  0.03125 0.5 0  0.0625 0.5 0  0.09375 0.5 0  0.125 0.5 0  0.15625 0.5 0  0.1875 0.5 0  0.21875 0.5 0  0.25 0.5 0  0.28125 0.5 0  0.3125 0.5 0  0.34375 0.5 0  0.375 0.5 0  0.40625 0.5 0  0.4375 0.5 0  0.46875 0.5 0  0.5 0.5 0  0.53125 0.5 0  0.5625 0.5 0  0.59375 0.5 0  0.625 0.5 0  0.65625 0.5 0  0.6875 0.5 0  0.71875 0.5 0  0.75 0.5 0  0.78125 0.5 0  0.8125 0.5 0  0.84375 0.5 0  0.875 0.5 0  0.90625 0.5 0  0.9375 0.5 0  0.96875 0.5 0  1 0.5 0  0 0.53125 0  0.03125 0.53125 0  0.0625 0.53125 0  0.09375 0.53125 0  0.125 0.53125 0  0.15625 0.53125 0  0.1875 0.53125 0  0.21875 0.53125 0  0.25 0.53125 0  0.28125 0.53125 0  0.3125 0.53125 0  0.34375 0.53125 0  0.375 0.53125 0  0.40625 0.53125 0  0.4375 0.53125 0  0.46875 0.53125 0  0.5 0.53125 0  0.53125 0.53125 0  0.5625 0.53125 0  0.59375 0.53125 0  0.625 0.53125 0  0.65625 0.53125 0  0.6875 0.53125 0  0.71875 0.53125 0  0.75 0.53125 0  0.78125 0.531
[...]
<PointData  Scalars="phi"> 
<DataArray  type="Float64"  Name="phi"  format="ascii">0.0000000000000000e+00  0.0000000000000000e+00  0.0000000000000000e+00  0.0000000000000000e+00  0.0000000000000000e+00  0.0000000000000000e+00  0.0000000000000000e+00  0.0000000000000000e+00  0.0000000000000000e+00  0.0000000000000000e+00  0.0000000000000000e+00  0.0000000000000000e+00  0.0000000000000000e+00  0.0000000000000000e+00  0.0000000000000000e+00  0.0000000000000000e+00  0.0000000000000000e+00  0.0000000000000000e+00  0.0000000000000000e+00  0.0000000000000000e+00  0.0000000000000000e+00  0.0000000000000000e+00  0.0000000000000000e+00  0.0000000000000000e+00  0.0000000000000000e+00  0.0000000000000000e+00  0.0000000000000000e+00  0.0000000000000000e+00  0.0000000000000000e+00  0.0000000000000000e+00  0.0000000000000000e+00  0.0000000000000000e+00  0.0000000000000000e+00  0.0000000000000000e+00  -5.4980812744554424e-19  1.0780657606912946e-08  4.2478412229619327e-08  1.0417314916040262e-07  2.0345760536266758e-07  3.4605983478665156e-07  5.3553789563231404e-07  7.7306087376806481e-07  1.0572861694406970e-06  1.3843388840656146e-06  1.7478950080968958e-06  2.1393659819383778e-06  2.5481781965083008e-06  2.9621372547113305e-06  3.3678634658369718e-06  3.7512822171010275e-06  4.0981506676352085e-06  4.3946007247625489e-06  4.6276775484333192e-06  4.7858529165868169e-06  4.8594936718134060e-06  4.8412671292897372e-06  4.7264677032792971e-06  4.5132520311405065e-06  4.2027734601838516e-06  3.7992108562544029e-06  3.3096913271109823e-06  2.7441119448109022e-06  2.1148730879428448e-06  1.4365496501373759e-06  7.2556017183612754e-07  0.0000000000000000e+00  0.0000000000000000e+00  -1.0780657609094832e-08  -2.1654312961211059e-18  5.2590410971254268e-08  1.6515515887356357e-07  3.5290609908101196e-07  6.2734574318278222e-07  9.9565654144405073e-07  1.4602627861685646e-06  2.0185844487178790e-06  2.6629944213397980e-06  3.3809825101377667e-06  4.1555213482916701e-06  4.9656214424344559e-06  5.7870551154420343e-06  6.5932224422542146e-06  7.3561266434577069e-06  8.0474220192058186e-06  8.6394945424569412e-06  9.1065338012582249e-06  9.4255551431786109e-06  9.5773326300865437e-06  9.5472066993663770e-06  9.3257351362222613e-06  8.9091619349052931e-06  8.2996856811210414e-06  7.5055170419531508e-06  6.5407236773407784e-06  5.4248704174417600e-06  4.1824732269128519e-06  2.8422980280278859e-06  1.4365496501373799e-06  0.0000000000000000e+00  0.0000000000000000e+00  -4.2478412232852577e-08  -5.2590410977673295e-08  -4.7576296953917738e-18  1.4254884520706619e-07  3.9792658694918376e-07  7.8348457848123897e-07  1.3101408996837239e-06  1.9817241358326033e-06  2.7946033292853387e-06  3.7376209724710141e-06  4.7923339572869452e-06  5.9335552896666905e-06  7.1301775660964373e-06  8.3462481336078967e-06  9.5422559354649525e-06  1.0676581659687318e-05  1.1707056278438657e-05  1.2592568645274115e-05  1.3294660676857534e-05  1.3779048872442227e-05  1.4017013515509327e-05  1.3986601766714878e-05  1.3673597821918648e-05  1.3072222126115611e-05  1.2185531996223668e-05  1.1025507562767093e-05  9.6128193144504895e-06  7.9762863032888477e-06  6.1520466612942790e-06  4.1824732269128722e-06  2.1148730879428613e-06  0.0000000000000000e+00  0.0000000000000000e+00  -1.0417314916464288e-07  -1.6515515888198292e-07  -1.4254884521954769e-07  -8.1866939465228723e-18  2.9306889801833317e-07  7.5995475553316438e-07  1.4154609495704667e-06  2.2650255445772828e-06  3.3042274890844421e-06  4.5186928686220911e-06  5.8844076463527477e-06  7.3684274213479246e-06  8.9299591901365608e-06  1.0521775506409920e-05  1.2091908356235156e-05  1.3585559004321622e-05  1.4947151447012880e-05  1.6122451263218192e-05  1.7060668813325322e-05  1.7716466011808065e-05  1.8051789286775485e-05  1.8037457716015731e-05  1.7654444457929246e-05  1.6894801136657086e-05  1.5762188360336578e-05  1.4271990533444822e-05  1.2451008968404635e-05  1.0336743289662608e-05  7.9762863032889053e-06  5.4248704174418252e-06  2.7441119448109428e-06  0.0000000000000000e+00  0.0000000000000000e+00  -2.0345760536785777e-07  -3.5290609909131829e-07  -3.9792658696446360e-07  -2.9306889803837821e-07  -1.2270246282731112e-17  5.1063215182665829e-07  1.2576944475590254e-06  2.2484855931638927e-06  3.4781194390686936e-06  4.9294017939373375e-06  6.5732086485490553e-06  8.3693541877246229e-06  1.0267917840454051e-05  1.2210981650667983e-05  1.4134713137331396e-05  1.5971715174624905e-05  1.7653553787764539e-05  1.9113367539367513e-05  2.0288458656378129e-05  2.1122766358110935e-05  2.1569126984678696e-05  2.1591233337713874e-05  2.1165216835838288e-05  2.0280790227524803e-05  1.8941905145568012e-05  1.7166897073806160e-05  1.4988109568919482e-05  1.2451008968404752e-05  9.6128193144506470e-06  6.5407236773409173e-06  3.3096913271110624e-06  0.0000000000000000e+00  0.0000000000000000e+00  -3.4605983479272289e-07  -6.2734574319483900e-07  -7.8348457849911454e-07  -7.5995475555661512e-07  -5.1063215185536847e-07  -1.6793919228586609e-17  7.9506586497189330e-07  1.8840088428424553e-06  3.2618537947019836e-06  4.9090516708860307e-06  6.7919159504593068e-06  8.8636372853750787e-06  1.1065840207175502e-05  1.3330624575981697e-05  1.5583015450045401e-05  1.7743728963976370e-05  1.9732149247197581e-05  2.1469402877611149e-05  2.2881413180870032e-05  2.3901817017833596e-05  2.4474631542764468e-05  2.4556567579664044e-05  2.4118899402896206e-05  2.3148817313372559e-05  2.1650208824663387e-05  1.9643835743613083e-05  1.7166897073806363e-05  1.4271990533445124e-05  1.1025507562767403e-05  7.5055170419533990e-06  3.7992108562545397e-06  0.0000000000000000e+00  0.0000000000000000e+00  -5.3553789563918729e-07  -9.9565654145770046e-07  -1.3101408997039619e-06  -1.4154609495970169e-06  -1.2576944475915298e-06  -7.9506586500991936e-07  -2.1524539004377301e-17  1.1393926384344570e-06  2.6184596895233988e-06  4.4158167346986396e-06  6.4938339144230383e-06  8.7997839730625223e-06  1.1267610601225124e-05  1.3820251751240748e-05  1.6372430886849928e-05  1.8833810732155164e-05  2.1112389718956322e-05  2.3118011552019206e-05  2.4765853498452795e-05  2.5979759348947423e-05  2.6695288485306147e-05  2.6862362911886853e-05  2.6447409068006790e-05  2.5434910156027372e-05  2.3828306860006500e-05  2.1650208824663705e-05  1.8941905145568513e-05  1.5762188360337140e-05  1.2185531996224189e-05  8.2996856811214361e-06  4.2027734601840633e-06  0.0000000000000000e+00  0.0000000000000000e+00  -7.7306087377565200e-07  -1.4602627861836326e-06  -1.9817241358549447e-06  -2.2650255446065923e-06  -2.2484855931997743e-06  -1.8840088428844307e-06  -1.1393926384819741e-06  -2.6222815405471895e-17  1.5302696491430263e-06  3.4287530368992385e-06  5.6545512220662908e-06  8.1497964363015908e-06  1.0841611924421594e-05  1.3644692133802698e-05  1.6464406375729925e-05  1.9200308547845638e-05  2.1749919460818448e-05  2.4012637374863632e-05  2.5893626947082344e-05  2.7307537130097827e-05  2.8181904636246724e-05  2.8460111158478420e-05  2.8103779175045453e-05  2.7094512219383996e-05  2.5434910156027829e-05  2.3148817313373311e-05  2.0280790227525704e-05  1.6894801136657987e-05  1.3072222126116401e-05  8.9091619349058742e-06  4.5132520311408131e-06  0.0000000000000000e+00  0.0000000000000000e+00  -1.0572861694489026e-06  -2.0185844487341759e-06  -2.7946033293095020e-06  -3.3042274891161415e-06  -3.4781194391075000e-06  -3.2618537947473786e-06  -2.6184596895747836e-06  -1.5302696491997366e-06  -3.0658143877228390e-17  1.9489824244852670e-06  4.2732210377050982e-06  6.9105394140758528e-06  9.7821706662775602e-06  1.2795567060675023e-05  1.5847784130051149e-05  1.8829311060062022e-05  2.1628201545416956e-05  2.4134347312998798e-05  2.6243730556875255e-05  2.7862491856707038e-05  2.8910656747107248e-05  2.9325376720279064e-05  2.9063558594967508e-05  2.8103779175046066e-05  2.6447409068007840e-05  2.4118899402897511e-05  2.1165216835839680e-05  1.7654444457930567e-05  1.3673597821919765e-05  9.3257351362230660e-06  4.7264677032797180e-06  0.0000000000000000e+00  0.0000000000000000e+00  -1.3843388840743386e-06  -2.6629944213571245e-06  -3.7376209724967034e-06  -4.5186928686557911e-06  -4.9294017939785914e-06  -4.9090516709342853e-06  -4.4158167347532580e-06  -3.4287530369595121e-06  -1.9489824245504284e-06  -3.4619929414852608e-17  2.3729100480678433e-06  5.1041308478347651e-06  8.1099882827444843e-06  1.1291760477882954e-05  1.4539307786791067e-05  1.7735185509115199e-05  2.0759082615424266e-05  2.3492416802868347e-05  2.5822909754971800e-05  2.7648966782059621e-05  2.8883692067290954e-05  2.9458384269388063e-05  2.9325376720279847e-05  2.8460111158479796e-05  2.6862362911888625e-05  2.4556567579666013e-05  2.1591233337715849e-05  1.8037457716017540e-05  1.3986601766716372e-05  9.5472066993674409e-06  4.8412671292902894e-06  0.0000000000000000e+00  0.0000000000000000e+00  -1.7478950081060334e-06  -3.3809825101559148e-06  -4.7923339573138521e-06  -5.8844076463880435e-06  -6.5732086485922624e-06  -6.7919159505098425e-06  -6.4938339144802333e-06  -5.6545512221294007e-06  -4.2732210377733182e-06  -2.3729100481403222e-06  -3.7929487722334358e-17  2.7773380137219975e-06  5.8715403864138071e-06  9.1788290565328562e-06  1.2583050571492633e-05  1.5960030195753226e-05  1.9182274951191362e-05  2.2123845688268276e-05  2.4665211392950062e-05  2.6697899204411023e-05  2.8128761045234762e-05  2.8883692067291906e-05  2.8910656747108966e-05  2.8181904636248994e-05  2.6695288485308752e-05  2.4474631542767192e-05  2.1569126984681332e-05  1.8051789286777840e-05  1.4017013515511245e-05  9.5773326300878938e-06  4.8594936718141039e-06  0.0000000000000000e+00  0.0000000000000000e+00  -2.1393659819478230e-06  -4.1555213483104285e-06  -5.9335552896945020e-06  -7.3684274213844063e-06  -8.3693541877692785e-06  -8.8636372854273033e-06  -8.7997839731216248e-06  -8.1497964363667971e-06  -6.9105394141463302e-06  -5.1041308479096318e-06  -2.7773380138003417e-06  -4.0447784218924734e-17  3.1374649833850453e-06  6.5273735727895099e-06  1.0048786787875161e-05  1.3572062418605571e-05  1.6963776379993132e-05  2.0091824653450959e-05  2.2830510156494675e-05  2.5065419110618553e-05  2.6697899204412142e-05  2.7648966782061671e-05  2.7862491856709816e-05  2.7307537130101100e-05  2.5979759348950956e-05  2.3901817017837154e-05  2.1122766358114292e-05  1.7716466011811020e-05  1.3779048872444604e-05  9.4255551431802728e-06  4.7858529165876715e-06  0.0000000000000000e+00  0.0000000000000000e+00  -2.5481781965179468e-06  -4.9656214424536133e-06  -7.1301775661248400e-06  -8.9299591901738167e-06  -1.0267917840499650e-05  -1.1065840207228826e-05  -1.1267610601285465e-05  -1.0841611924488159e-05  -9.7821706663494936e-06  -8.1099882828208850e-06  -5.8715403864937416e-06  -3.1374649834675674e-06  -4.2081353588809950e-17  3.4304329462019929e-06  7.0293685722866536e-06  1.0663003765882867e-05  1.4193289270205960e-05  1.7483212181053379e-05  2.0402066623802482e-05  2.2830510156495942e-05  2.4665211392952427e-05  2.5822909754975063e-05  2.6243730556879188e-05  2.5893626947086702e-05  2.4765853498457322e-05  2.2881413180874473e-05  2.0288458656382249e-05  1.7060668813328903e-05  1.3294660676860393e-05  9.1065338012602137e-06  4.6276775484343382e-06  0.0000000000000000e+00  0.0000000000000000e+00  -2.9621372547210726e-06  -5.7870551154613822e-06  -8.3462481336365807e-06  -1.0521775506447543e-05  -1.2210981650714027e-05  -1.3330624576035538e-05  -1.3820251751301664e-05  -1.3644692133869891e-05  -1.2795567060747625e-05  -1.1291760477960051e-05  -9.1788290566135022e-06  -6.5273735728727487e-06  -3.4304329462868677e-06  -4.2785739699384952e-17  3.6372081186282495e-06  7.3445631403724900e-06  1.0980738201931881e-05  1.4405119894517969e-05  1.7483212181054761e-05  2.0091824653453588e-05  2.2123845688271969e-05  2.3492416802872894e-05  2.4134347313003945e-05  2.4012637374869121e-05  2.3118011552024763e-05  2.1469402877616505e-05  1.9113367539372419e-05  1.6122451263222417e-05  1.2592568645277464e-05  8.6394945424592620e-06  4.3946007247637356e-06  0.0000000000000000e+00  0.0000000000000000e+00  -3.3678634658467080e-06  -6.5932224422735507e-06  -9.5422559354936178e-06  -1.2091908356272753e-05  -1.4134713137377403e-05  -1.5583015450099191e-05  -1.6372430886910782e-05  -1.6464406375797040e-05  -1.5847784130123655e-05  -1.4539307786868047e-05  -1.2583050571573142e-05  -1.0048786787958238e-05  -7.0293685723713417e-06  -3.6372081187136105e-06  -4.2563429945700615e-17  3.7441525317741300e-06  7.4520204197097158e-06  1.0980738201933344e-05  1.4193289270208791e-05  1.6963776379997177e-05  1.9182274951196427e-05  2.0759082615430118e-05  2.1628201545423336e-05  2.1749919460825072e-05  2.1112389718962909e-05  1.9732149247203846e-05  1.7653553787770217e-05  1.4947151447017737e-05  1.1707056278442489e-05  8.0474220192084647e-06  4.0981506676365587e-06  0.0000000000000000e+00  0.0000000000000000e+00  -3.7512822171106599e-06  -7.3561266434768363e-06  -1.0676581659715677e-05  -1.3585559004358813e-05  -1.5971715174670414e-05  -1.7743728964029574e-05  -1.8833810732215344e-05  -1.9200308547911998e-05  -1.8829311060133701e-05  -1.7735185509191286e-05  -1.5960030195832782e-05  -1.3572062418687645e-05  -1.0663003765966511e-05  -7.3445631404567757e-06  -3.7441525318581599e-06  -4.1461680172435558e-17  3.7441525317756373e-06  7.3445631403754478e-06  1.0663003765887161e-05  1.3572062418611036e-05  1.5960030195759653e-05  1.7735185509122338e-05  1.8829311060069601e-05  1.9200308547853363e-05  1.8833810732162740e-05  1.7743728963983505e-05  1.5971715174631328e-05  1.3585559004327083e-05  1.0676581659691609e-05  7.3561266434606622e-06  3.7512822171025335e-06  0.0000000000000000e+00  0.0000000000000000e+00  -4.0981506676446436e-06  -8.0474220192245583e-06  -1.1707056278466435e-05  -1.4947151447049308e-05  -1.7653553787809110e-05  -1.9732149247249684e-05  -2.1112389719015248e-05  -2.1749919460883412e-05  -2.1628201545487118e-05  -2.0759082615498724e-05  -1.9182274951269198e-05  -1.6963776380073410e-05  -1.4193289270287754e-05  -1.0980738202014278e-05  -7.4520204197918399e-06  -3.7441525318566531e-06  -3.9563427256540029e-17  3.6372081186326715e-06  7.0293685722923694e-06  1.0048786787881993e-05  1.2583050571500358e-05  1.4539307786799425e-05  1.5847784130059856e-05  1.6464406375738683e-05  1.6372430886858425e-05  1.5583015450053339e-05  1.4134713137338499e-05  1.2091908356241170e-05  9.5422559354696620e-06  6.5932224422574503e-06  3.3678634658386188e-06  0.0000000000000000e+00  0.0000000000000000e+00  -4.3946007247717020e-06  -8.6394945424751185e-06  -1.2592568645301059e-05  -1.6122451263253523e-05  -1.9113367539410739e-05  -2.1469402877661672e-05  -2.3118011552076341e-05  -2.4012637374926611e-05  -2.4134347313066798e-05  -2.3492416802940501e-05  -2.2123845688343682e-05  -2.0091824653528713e-05  -1.7483212181132580e-05  -1.4405119894597729e-05  -1.0980738202012815e-05  -7.3445631404538187e-06  -3.6372081187091890e-06  -3.6984384013178732e-17  3.4304329462090343e-06  6.5273735727976025e-06  9.1788290565417670e-06  1.1291760477892418e-05  1.2795567060684743e-05  1.3644692133812369e-05  1.3820251751250058e-05  1.3330624575990342e-05  1.2210981650675679e-05  1.0521775506416411e-05  8.3462481336129654e-06  5.7870551154455113e-06  2.9621372547130986e-06  0.0000000000000000e+00  0.0000000000000000e+00  -4.6276775484421089e-06  -9.1065338012756822e-06  -1.3294660676883409e-05  -1.7060668813359251e-05  -2.0288458656419633e-05  -2.2881413180918536e-05  -2.4765853498507635e-05  -2.5893626947142789e-05  -2.6243730556940503e-05  -2.5822909755041020e-05  -2.4665211393022389e-05  -2.2830510156569234e-05  -2.0402066623878403e-05  -1.7483212181131198e-05  -1.4193289270284925e-05  -1.0663003765962219e-05  -7.0293685723656259e-06  -3.4304329462798259e-06  -3.3863172793734243e-17  3.1374649833942432e-06  5.8715403864237445e-06  8.1099882827548892e-06  9.7821706662881346e-06  1.0841611924432029e-05  1.1267610601235105e-05  1.1065840207184722e-05  1.0267917840462227e-05  8.9299591901434353e-06  7.1301775661017948e-06  4.9656214424381244e-06  2.5481781965101647e-06  0.0000000000000000e+00  0.0000000000000000e+00  -4.7858529165951720e-06  -9.4255551431952026e-06  -1.3779048872466822e-05  -1.7716466011840314e-05  -2.1122766358150376e-05  -2.3901817017879688e-05  -2.5979759348999525e-05  -2.7307537130155242e-05  -2.7862491856769010e-05  -2.7648966782125347e-05  -2.6697899204479684e-05  -2.5065419110689314e-05  -2.2830510156567974e-05  -2.0091824653526087e-05  -1.6963776380069368e-05  -1.3572062418682182e-05  -1.0048786787951406e-05  -6.5273735728646561e-06  -3.1374649834583695e-06  -3.0347261983092824e-17  2.7773380137327578e-06  5.1041308478459104e-06  6.9105394140870853e-06  8.1497964363126006e-06  8.7997839730729984e-06  8.8636372853847179e-06  8.3693541877331424e-06  7.3684274213550702e-06  5.9335552896722479e-06  4.1555213482954716e-06  2.1393659819403077e-06  0.0000000000000000e+00  0.0000000000000000e+00  -4.8594936718212622e-06  -9.5773326301021426e-06  -1.4017013515532450e-05  -1.8051789286805795e-05  -2.1569126984715772e-05  -2.4474631542807785e-05  -2.6695288485355112e-05  -2.8181904636300670e-05  -2.8910656747165466e-05  -2.8883692067352686e-05  -2.8128761045299231e-05  -2.6697899204478569e-05  -2.4665211393020027e-05  -2.2123845688339993e-05  -1.9182274951264136e-05  -1.5960030195826359e-05  -1.2583050571565417e-05  -9.1788290566045914e-06  -5.8715403864838042e-06  -2.7773380137895815e-06  -2.6589802122367459e-17  2.3729100480794900e-06  4.2732210377167584e-06  5.6545512220776589e-06  6.4938339144338092e-06  6.7919159504691840e-06  6.5732086485577619e-06  5.8844076463600347e-06  4.7923339572926042e-06  3.3809825101416338e-06  1.7478950080988580e-06  0.0000000000000000e+00  0.0000000000000000e+00  -4.8412671292970369e-06  -9.5472066993808714e-06  -1.3986601766736359e-05  -1.8037457716043890e-05  -2.1591233337748311e-05  -2.4556567579704275e-05  -2.6862362911932325e-05  -2.8460111158528510e-05  -2.9325376720333108e-05  -2.9458384269445357e-05  -2.8883692067351731e-05  -2.7648966782123294e-05  -2.5822909755037760e-05  -2.3492416802935961e-05  -2.0759082615492876e-05  -1.7735185509184147e-05  -1.4539307786859687e-05  -1.1291760477950588e-05  -8.1099882828104800e-06  -5.1041308478984866e-06  -2.3729100481286755e-06  -2.2737086800398473e-17  1.9489824244970996e-06  3.4287530369107256e-06  4.4158167347094842e-06  4.9090516708959478e-06  4.9294017939460585e-06  4.5186928686293789e-06  3.7376209724766668e-06  2.6629944213436571e-06  1.3843388840675719e-06  0.0000000000000000e+00  0.0000000000000000e+00  -4.7264677032859895e-06  -9.3257351362355496e-06  -1.3673597821938342e-05  -1.7654444457955063e-05  -2.1165216835869855e-05  -2.4118899402933079e-05  -2.6447409068048460e-05  -2.8103779175091349e-05  -2.9063558595017019e-05  -2.9325376720332326e-05  -2.8910656747163752e-05  -2.7862491856766235e-05  -2.6243730556936576e-05  -2.4134347313061652e-05  -2.1628201545480744e-05  -1.8829311060126122e-05  -1.5847784130114944e-05  -1.2795567060737903e-05  -9.7821706663389193e-06  -6.9105394141350969e-06  -4.2732210377616579e-06  -1.9489824245385957e-06  -1.8926187441987606e-17  1.5302696491543750e-06  2.6184596895340824e-06  3.2618537947117308e-06  3.4781194390772499e-06  3.3042274890915822e-06  2.7946033292908703e-06  2.0185844487216530e-06  1.0572861694426104e-06  0.0000000000000000e+00  0.0000000000000000e+00  -4.5132520311465484e-06  -8.9091619349172922e-06  -1.3072222126133392e-05  -1.6894801136680390e-05  -2.0280790227553301e-05  -2.3148817313405844e-05  -2.5434910156064984e-05  -2.7094512219425415e-05  -2.8103779175090739e-05  -2.8460111158527138e-05  -2.8181904636298404e-05  -2.7307537130151973e-05  -2.5893626947138438e-05  -2.4012637374921129e-05  -2.1749919460876795e-05  -1.9200308547904273e-05  -1.6464406375788286e-05  -1.3644692133860220e-05  -1.0841611924477723e-05  -8.1497964363557874e-06  -5.6545512221180318e-06  -3.4287530369480251e-06  -1.5302696491883876e-06  -1.5276254669827591e-17  1.1393926