<?xml version="1.0"?>
<VTKFile type="UnstructuredGrid"  version="0.1"  >
<UnstructuredGrid>
<Piece  NumberOfPoints="1089" NumberOfCells="2048">
<Points>
<DataArray  type="Float64"  NumberOfComponents="3"  format="ascii">0 0 0  0.03125 0 0  0.0625 0 0  0.09375 0 0  0.125 0 0  0.15625 0 0  0.1875 0 0  0.21875 0 0  0.25 0 0  0.28125 0 0  0.3125 0 0  0.34375 0 0  0.375 0 0  0.40625 0 0  0.4375 0 0  0.46875 0 0  0.5 0 0  0.53125 0 0  0.5625 0 0  0.59375 0 0  0.625 0 0  0.65625 0 0  0.6875 0 0  0.71875 0 0  0.75 0 0  0.78125 0 0  0.8125 0 0  0.84375 0 0  0.875 0 0  0.90625 0 0  0.9375 0 0  0.96875 0 0  1 0 0  0 0.03125 0  0.03125 0.03125 0  0.0625 0.03125 0  0.09375 0.03125 0  0.125 0.03125 0  0.15625 0.03125 0  0.1875 0.03125 0  0.21875 0.03125 0  0.25 0.03125 0  0.28125 0.03125 0  0.3125 0.03125 0  0.34375 0.03125 0  0.375 0.03125 0  0.40625 0.03125 0  0.4375 0.03125 0  0.46875 0.03125 0  0.5 0.03125 0  0.53125 0.03125 0  0.5625 0.03125 0  0.59375 0.03125 0  0.625 0.03125 0  0.65625 0.03125 0  0.6875 0.03125 0  0.71875 0.03125 0  0.75 0.03125 0  0.78125 0.03125 0  0.8125 0.03125 0  0.84375 0.03125 0  0.875 0.03125 0  0.90625 0.03125 0  0.9375 0.03125 0  0.96875 0.03125 0  1 0.03125 0  0 0.0625 0  0.03125 0.0625 0  0.0625 0.0625 0  0.09375 0.0625 0  0.125 0.0625 0  0.15625 0.0625 0  0.1875 0.0625 0  0.21875 0.0625 0  0.25 0.0625 0  0.28125 0.0625 0  0.3125 0.0625 0  0.34375 0.0625 0  0.375 0.0625 0  0.40625 0.0625 0  0.4375 0.0625 0  0.46875 0.0625 0  0.5 0.0625 0  0.53125 0.0625 0  0.5625 0.0625 0  0.59375 0.0625 0  0.625 0.0625 0  0.65625 0.0625 0  0.6875 0.0625 0  0.71875 0.0625 0  0.75 0.0625 0  0.78125 0.0625 0  0.8125 0.0625 0  0.84375 0.0625 0  0.875 0.0625 0  0.90625 0.0625 0  0.9375 0.0625 0  0.96875 0.0625 0  1 0.0625 0  0 0.09375 0  0.03125 0.09375 0  0.0625 0.09375 0  0.09375 0.09375 0  0.125 0.09375 0  0.15625 0.09375 0  0.1875 0.09375 0  0.21875 0.09375 0  0.25 0.09375 0  0.28125 0.09375 0  0.3125 0.09375 0  0.34375 0.09375 0  0.375 0.09375 0  0.40625 0.09375 0  0.4375 0.09375 0  0.46875 0.09375 0  0.5 0.09375 0  0.53125 0.09375 0  0.5625 0.09375 0  0.59375 0.09375 0  0.625 0.09375 0  0.65625 0.09375 0  0.6875 0.09375 0  0.71875 0.09375 0  0.75 0.09375 0  0.78125 0.09375 0  0.8125 0.09375 0  0.84375 0.09375 0  0.875 0.09375 0  0.90625 0.09375 0  0.9375 0.09375 0  0.96875 0.09375 0  1 0.09375 0  0 0.125 0  0.03125 0.125 0  0.0625 0.125 0  0.09375 0.125 0  0.125 0.125 0  0.15625 0.125 0  0.1875 0.125 0  0.21875 0.125 0  0.25 0.125 0  0.28125 0.125 0  0.3125 0.125 0  0.34375 0.125 0  0.375 0.125 0  0.40625 0.125 0  0.4375 0.125 0  0.46875 0.125 0  0.5 0.125 0  0.53125 0.125 0  0.5625 0.125 0  0.59375 0.125 0  0.625 0.125 0  0.65625 0.125 0  0.6875 0.125 0  0.71875 0.125 0  0.75 0.125 0  0.78125 0.125 0  0.8125 0.125 0  0.84375 0.125 0  0.875 0.125 0  0.90625 0.125 0  0.9375 0.125 0  0.96875 0.125 0  1 0.125 0  0 0.15625 0  0.03125 0.15625 0  0.0625 0.15625 0  0.09375 0.15625 0  0.125 0.15625 0  0.15625 0.15625 0  0.1875 0.15625 0  0.21875 0.15625 0  0.25 0.15625 0  0.28125 0.15625 0  0.3125 0.15625 0  0.34375 0.15625 0  0.375 0.15625 0  0.40625 0.15625 0  0.4375 0.15625 0  0.46875 0.15625 0  0.5 0.15625 0  0.53125 0.15625 0  0.5625 0.15625 0  0.59375 0.15625 0  0.625 0.15625 0  0.65625 0.15625 0  0.6875 0.15625 0  0.71875 0.15625 0  0.75 0.15625 0  0.78125 0.15625 0  0.8125 0.15625 0  0.84375 0.15625 0  0.875 0.15625 0  0.90625 0.15625 0  0.9375 0.15625 0  0.96875 0.15625 0  1 0.15625 0  0 0.1875 0  0.03125 0.1875 0  0.0625 0.1875 0  0.09375 0.1875 0  0.125 0.1875 0  0.15625 0.1875 0  0.1875 0.1875 0  0.21875 0.1875 0  0.25 0.1875 0  0.28125 0.1875 0  0.3125 0.1875 0  0.34375 0.1875 0  0.375 0.1875 0  0.40625 0.1875 0  0.4375 0.1875 0  0.46875 0.1875 0  0.5 0.1875 0  0.53125 0.1875 0  0.5625 0.1875 0  0.59375 0.1875 0  0.625 0.1875 0  0.65625 0.1875 0  0.6875 0.1875 0  0.71875 0.1875 0  0.75 0.1875 0  0.78125 0.1875 0  0.8125 0.1875 0  0.84375 0.1875 0  0.875 0.1875 0  0.90625 0.1875 0  0.9375 0.1875 0  0.96875 0.1875 0  1 0.1875 0  0 0.21875 0  0.03125 0.21875 0  0.0625 0.21875 0  0.09375 0.21875 0  0.125 0.21875 0  0.15625 0.21875 0  0.1875 0.21875 0  0.21875 0.21875 0  0.25 0.21875 0  0.28125 0.21875 0  0.3125 0.21875 0  0.34375 0.21875 0  0.375 0.21875 0  0.40625 0.21875 0  0.4375 0.21875 0  0.46875 0.21875 0  0.5 0.21875 0  0.53125 0.21875 0  0.5625 0.21875 0  0.59375 0.21875 0  0.625 0.21875 0  0.65625 0.21875 0  0.6875 0.21875 0  0.71875 0.21875 0  0.75 0.21875 0  0.78125 0.21875 0  0.8125 0.21875 0  0.84375 0.21875 0  0.875 0.21875 0  0.90625 0.21875 0  0.9375 0.21875 0  0.96875 0.21875 0  1 0.21875 0  0 0.25 0  0.03125 0.25 0  0.0625 0.25 0  0.09375 0.25 0  0.125 0.25 0  0.15625 0.25 0  0.1875 0.25 0  0.21875 0.25 0  0.25 0.25 0  0.28125 0.25 0  0.3125 0.25 0  0.34375 0.25 0  0.375 0.25 0  0.40625 0.25 0  0.4375 0.25 0  0.46875 0.25 0  0.5 0.25 0  0.53125 0.25 0  0.5625 0.25 0  0.59375 0.25 0  0.625 0.25 0  0.65625 0.25 0  0.6875 0.25 0  0.71875 0.25 0  0.75 0.25 0  0.78125 0.25 0  0.8125 0.25 0  0.84375 0.25 0  0.875 0.25 0  0.90625 0.25 0  0.9375 0.25 0  0.96875 0.25 0  1 0.25 0  0 0.28125 0  0.03125 0.28125 0  0.0625 0.28125 0  0.09375 0.28125 0  0.125 0.28125 0  0.15625 0.28125 0  0.1875 0.28125 0  0.21875 0.28125 0  0.25 0.28125 0  0.28125 0.28125 0  0.3125 0.28125 0  0.34375 0.28125 0  0.375 0.28125 0  0.40625 0.28125 0  0.4375 0.28125 0  0.46875 0.28125 0  0.5 0.28125 0  0.53125 0.28125 0  0.5625 0.28125 0  0.59375 0.28125 0  0.625 0.28125 0  0.65625 0.28125 0  0.6875 0.28125 0  0.71875 0.28125 0  0.75 0.28125 0  0.78125 0.28125 0  0.8125 0.28125 0  0.84375 0.28125 0  0.875 0.28125 0  0.90625 0.28125 0  0.9375 0.28125 0  0.96875 0.28125 0  1 0.28125 0  0 0.3125 0  0.03125 0.3125 0  0.0625 0.3125 0  0.09375 0.3125 0  0.125 0.3125 0  0.15625 0.3125 0  0.1875 0.3125 0  0.21875 0.3125 0  0.25 0.3125 0  0.28125 0.3125 0  0.3125 0.3125 0  0.34375 0.3125 0  0.375 0.3125 0  0.40625 0.3125 0  0.4375 0.3125 0  0.46875 0.3125 0  0.5 0.3125 0  0.53125 0.3125 0  0.5625 0.3125 0  0.59375 0.3125 0  0.625 0.3125 0  0.65625 0.3125 0  0.6875 0.3125 0  0.71875 0.3125 0  0.75 0.3125 0  0.78125 0.3125 0  0.8125 0.3125 0  0.84375 0.3125 0  0.875 0.3125 0  0.90625 0.3125 0  0.9375 0.3125 0  0.96875 0.3125 0  1 0.3125 0  0 0.34375 0  0.03125 0.34375 0  0.0625 0.34375 0  0.09375 0.34375 0  0.125 0.34375 0  0.15625 0.34375 0  0.1875 0.34375 0  0.21875 0.34375 0  0.25 0.34375 0  0.28125 0.34375 0  0.3125 0.34375 0  0.34375 0.34375 0  0.375 0.34375 0  0.40625 0.34375 0  0.4375 0.34375 0  0.46875 0.34375 0  0.5 0.34375 0  0.53125 0.34375 0  0.5625 0.34375 0  0.59375 0.34375 0  0.625 0.34375 0  0.65625 0.34375 0  0.6875 0.34375 0  0.71875 0.34375 0  0.75 0.34375 0  0.78125 0.34375 0  0.8125 0.34375 0  0.84375 0.34375 0  0.875 0.34375 0  0.90625 0.34375 0  0.9375 0.34375 0  0.96875 0.34375 0  1 0.34375 0  0 0.375 0  0.03125 0.375 0  0.0625 0.375 0  0.09375 0.375 0  0.125 0.375 0  0.15625 0.375 0  0.1875 0.375 0  0.21875 0.375 0  0.25 0.375 0  0.28125 0.375 0  0.3125 0.375 0  0.34375 0.375 0  0.375 0.375 0  0.40625 0.375 0  0.4375 0.375 0  0.46875 0.375 0  0.5 0.375 0  0.53125 0.375 0  0.5625 0.375 0  0.59375 0.375 0  0.625 0.375 0  0.65625 0.375 0  0.6875 0.375 0  0.71875 0.375 0  0.75 0.375 0  0.78125 0.375 0  0.8125 0.375 0  0.84375 0.375 0  0.875 0.375 0  0.90625 0.375 0  0.9375 0.375 0  0.96875 0.375 0  1 0.375 0  0 0.40625 0  0.03125 0.40625 0  0.0625 0.40625 0  0.09375 0.40625 0  0.125 0.40625 0  0.15625 0.40625 0  0.1875 0.40625 0  0.21875 0.40625 0  0.25 0.40625 0  0.28125 0.40625 0  0.3125 0.40625 0  0.34375 0.40625 0  0.375 0.40625 0  0.40625 0.40625 0  0.4375 0.40625 0  0.46875 0.40625 0  0.5 0.40625 0  0.53125 0.40625 0  0.5625 0.40625 0  0.59375 0.40625 0  0.625 0.40625 0  0.65625 0.40625 0  0.6875 0.40625 0  0.71875 0.40625 0  0.75 0.40625 0  0.78125 0.40625 0  0.8125 0.40625 0  0.84375 0.40625 0  0.875 0.40625 0  0.90625 0.40625 0  0.9375 0.40625 0  0.96875 0.40625 0  1 0.40625 0  0 0.4375 0  0.03125 0.4375 0  0.0625 0.4375 0  0.09375 0.4375 0  0.125 0.4375 0  0.15625 0.4375 0  0.1875 0.4375 0  0.21875 0.4375 0  0.25 0.4375 0  0.28125 0.4375 0  0.3125 0.4375 0  0.34375 0.4375 0  0.375 0.4375 0  0.40625 0.4375 0  0.4375 0.4375 0  0.46875 0.4375 0  0.5 0.4375 0  0.53125 0.4375 0  0.5625 0.4375 0  0.59375 0.4375 0  0.625 0.4375 0  0.65625 0.4375 0  0.6875 0.4375 0  0.71875 0.4375 0  0.75 0.4375 0  0.78125 0.4375 0  0.8125 0.4375 0  0.84375 0.4375 0  0.875 0.4375 0  0.90625 0.4375 0  0.9375 0.4375 0  0.96875 0.4375 0  1 0.4375 0  0 0.46875 0  0.03125 0.46875 0  0.0625 0.46875 0  0.09375 0.46875 0  0.125 0.46875 0  0.15625 0.46875 0  0.1875 0.46875 0  0.21875 0.46875 0  0.25 0.46875 0  0.28125 0.46875 0  0.3125 0.46875 0  0.34375 0.46875 0  0.375 0.46875 0  0.40625 0.46875 0  0.4375 0.46875 0  0.46875 0.46875 0  0.5 0.46875 0  0.53125 0.46875 0  0.5625 0.46875 0  0.59375 0.46875 0  0.625 0.46875 0  0.65625 0.46875 0  0.6875 0.46875 0  0.71875 0.46875 0  0.75 0.46875 0  0.78125 0.46875 0  0.8125 0.46875 0  0.84375 0.46875 0  0.875 0.46875 0  0.90625 0.46875 0  0.9375 0.46875 0  0.96875 0.46875 0  1 0.46875 0  0 0.5 0  0.03125 0.5 0  0.0625 0.5 0  0.09375 0.5 0  0.125 0.5 0  0.15625 0.5 0  0.1875 0.5 0  0.21875 0.5 0  0.25 0.5 0  0.28125 0.5 0  0.3125 0.5 0  0.34375 0.5 0  0.375 0.5 0  0.40625 0.5 0  0.4375 0.5 0  0.46875 0.5 0  0.5 0.5 0  0.53125 0.5 0  0.5625 0.5 0  0.59375 0.5 0  0.625 0.5 0  0.65625 0.5 0  0.6875 0.5 0  0.71875 0.5 0  0.75 0.5 0  0.78125 0.5 0  0.8125 0.5 0  0.84375 0.5 0  0.875 0.5 0  0.90625 0.5 0  0.9375 0.5 0  0.96875 0.5 0  1 0.5 0  0 0.53125 0  0.03125 0.53125 0  0.0625 0.53125 0  0.09375 0.53125 0  0.125 0.53125 0  0.15625 0.53125 0  0.1875 0.53125 0  0.21875 0.53125 0  0.25 0.53125 0  0.28125 0.53125 0  0.3125 0.53125 0  0.34375 0.53125 0  0.375 0.53125 0  0.40625 0.53125 0  0.4375 0.53125 0  0.46875 0.53125 0  0.5 0.53125 0  0.53125 0.53125 0  0.5625 0.53125 0  0.59375 0.53125 0  0.625 0.53125 0  0.65625 0.53125 0  0.6875 0.53125 0  0.71875 0.53125 0  0.75 0.53125 0  0.78125 0.531
[...]
<PointData  Scalars="phi"> 
<DataArray  type="Float64"  Name="phi"  format="ascii">0.0000000000000000e+00  0.0000000000000000e+00  0.0000000000000000e+00  0.0000000000000000e+00  0.0000000000000000e+00  0.0000000000000000e+00  0.0000000000000000e+00  0.0000000000000000e+00  0.0000000000000000e+00  0.0000000000000000e+00  0.0000000000000000e+00  0.0000000000000000e+00  0.0000000000000000e+00  0.0000000000000000e+00  0.0000000000000000e+00  0.0000000000000000e+00  0.0000000000000000e+00  0.0000000000000000e+00  0.0000000000000000e+00  0.0000000000000000e+00  0.0000000000000000e+00  0.0000000000000000e+00  0.0000000000000000e+00  0.0000000000000000e+00  0.0000000000000000e+00  0.0000000000000000e+00  0.0000000000000000e+00  0.0000000000000000e+00  0.0000000000000000e+00  0.0000000000000000e+00  0.0000000000000000e+00  0.0000000000000000e+00  0.0000000000000000e+00  0.0000000000000000e+00  -8.4212252494953739e-21  9.4408078947259110e-13  3.7199078994924565e-12  9.1226225588571980e-12  1.7817133857093013e-11  3.0305057371729493e-11  4.6897978404598255e-11  6.7698275824411382e-11  9.2588375852009020e-11  1.2122894692597759e-10  1.5306618460810598e-10  1.8734797390112771e-10  2.2314836559589725e-10  2.5939947527761809e-10  2.9492962032246240e-10  3.2850626258038664e-10  3.5888213187746567e-10  3.8484277538611570e-10  4.0525371538860870e-10  4.1910540556844831e-10  4.2555425369362836e-10  4.2395812388970801e-10  4.1390493988658885e-10  3.9523327523399135e-10  3.6804413054780956e-10  3.3270345632743839e-10  2.8983538570862187e-10  2.4030662238477862e-10  1.8520308892578586e-10  1.2580113393938282e-10  6.3538557368749564e-11  0.0000000000000000e+00  0.0000000000000000e+00  -9.4408082296811526e-13  -3.3315466541403978e-20  4.6054330694264427e-12  1.4462922440381290e-11  3.0904596527692745e-11  5.4937750137584466e-11  8.7191362844866247e-11  1.2787773411374814e-10  1.7677092638046064e-10  2.3320302064632175e-10  2.9607847762530092e-10  3.6390618139673958e-10  4.3484804577518262e-10  5.0678241123082559e-10  5.7737987638492801e-10  6.4418871491049832e-10  7.0472664491554884e-10  7.5657545835930403e-10  7.9747489288935491e-10  8.2541214279502506e-10  8.3870355946858128e-10  8.3606537969288126e-10  8.1667073241033304e-10  7.8019069771033758e-10  7.2681780954024406e-10  6.5727109019725419e-10  5.7278246895864455e-10  4.7506527179200503e-10  3.6626640406418992e-10  2.4890494727076070e-10  1.2580113393938316e-10  0.0000000000000000e+00  0.0000000000000000e+00  -3.7199079493017793e-12  -4.6054331685236608e-12  -7.3698522431923480e-20  1.2483248477140739e-11  3.4847118367101358e-11  6.8611097569209891e-11  1.1473130119563598e-10  1.7354300507161135e-10  2.4472823996545524e-10  3.2730992366898901e-10  4.1967296135234390e-10  5.1961168444428640e-10  6.2440196389299970e-10  7.3089536378359054e-10  8.3563183263740502e-10  9.3496669542282494e-10  1.0252071375412692e-09  1.1027529848946735e-09  1.1642363967035372e-09  1.2066551075957003e-09  1.2274940823931330e-09  1.2248308730391982e-09  1.1974205770128162e-09  1.1447570687000700e-09  1.0671080826236517e-09  9.6552273950451591e-10  8.4181118973874300e-10  6.9849716748503627e-10  5.3874535137836351e-10  3.6626640406419168e-10  1.8520308892578728e-10  0.0000000000000000e+00  0.0000000000000000e+00  -9.1226226244887822e-12  -1.4462922570969229e-11  -1.2483248671390273e-11  -1.2800411823958325e-19  2.5664549407809594e-11  6.6550550290249935e-11  1.2395435981367176e-10  1.9835219867414215e-10  2.8935690775905141e-10  3.9570973855301146e-10  5.1530774037523086e-10  6.4526591513763436e-10  7.8201194907198935e-10  9.2141005313768605e-10  1.0589092985997133e-09  1.1897108655647322e-09  1.3089478674061456e-09  1.4118709021996774e-09  1.4940322334846438e-09  1.5514615268071320e-09  1.5808263651534669e-09  1.5795713247664734e-09  1.5460301922654803e-09  1.4795069146485341e-09  1.3803220576923182e-09  1.2498228602673682e-09  1.0903563595913747e-09  9.0520646254319974e-10  6.9849716748504113e-10  4.7506527179201061e-10  2.4030662238478214e-10  0.0000000000000000e+00  0.0000000000000000e+00  -1.7817133937905551e-11  -3.0904596688496514e-11  -3.4847118606309073e-11  -2.5664549723082809e-11  -1.9413553269636167e-19  4.4716939230878328e-11  1.1013847470202824e-10  1.9690376650794939e-10  3.0458492609189135e-10  4.3167622842238233e-10  5.7562723371153508e-10  7.3291880071858433e-10  8.9917929882154181e-10  1.0693367525762930e-09  1.2378012413723509e-09  1.3986706824988552e-09  1.5459521945903173e-09  1.6737906060973930e-09  1.7766953647469698e-09  1.8497571311506426e-09  1.8888457021546632e-09  1.8907815936909376e-09  1.8534745928640789e-09  1.7760238272903089e-09  1.6587753482781314e-09  1.5033348258145528e-09  1.3125346410189465e-09  1.0903563595913846e-09  8.4181118973875655e-10  5.7278246895865654e-10  2.8983538570862875e-10  0.0000000000000000e+00  0.0000000000000000e+00  -3.0305057466937077e-11  -5.4937750327040854e-11  -6.8611097851051652e-11  -6.6550550661726809e-11  -4.4716939688379485e-11  -2.6954432311223089e-19  6.9625290663541170e-11  1.6498590793563471e-10  2.8564617004155941e-10  4.2989413293895296e-10  5.9477980980912422e-10  7.7620402519850051e-10  9.6905473851299365e-10  1.1673858172318848e-09  1.3646315762156798e-09  1.5538489904394856e-09  1.7279783888836254e-09  1.8801126897511128e-09  2.0037648707300168e-09  2.0931233971085874e-09  2.1432857543963655e-09  2.1504610346853639e-09  2.1121336765686216e-09  2.0271819125728101e-09  1.8959461789751747e-09  1.7202446230588667e-09  1.5033348258145701e-09  1.2498228602673940e-09  9.6552273950454259e-10  6.5727109019727549e-10  3.3270345632745012e-10  0.0000000000000000e+00  0.0000000000000000e+00  -4.6897978513277438e-11  -8.7191363061138034e-11  -1.1473130151737948e-10  -1.2395436023775232e-10  -1.1013847522432758e-10  -6.9625291278997124e-11  -3.5132761967084857e-19  9.9778580825867461e-11  2.2930303697949927e-10  3.8670069764433156e-10  5.6867625102972922e-10  7.7061228029379409e-10  9.8672412033613149e-10  1.2102633145470550e-09  1.4337620493636525e-09  1.6493093335123554e-09  1.8488484307681695e-09  2.0244841986466851e-09  2.1687885639295344e-09  2.2750923958364449e-09  2.3377525181350636e-09  2.3523835142560889e-09  2.3160452895047008e-09  2.2273790111120088e-09  2.0866859857230863e-09  1.8959461789752020e-09  1.6587753482781746e-09  1.3803220576923666e-09  1.0671080826236965e-09  7.2681780954027798e-10  3.6804413054782781e-10  0.0000000000000000e+00  0.0000000000000000e+00  -6.7698275945509809e-11  -1.2787773435474139e-10  -1.7354300543014203e-10  -1.9835219914672209e-10  -1.9690376708999334e-10  -1.6498590862150462e-10  -9.9778581608926997e-11  -4.3633938075270265e-19  1.3400835566004916e-10  3.0026182479831953e-10  4.9517881606265074e-10  7.1369174903500901e-10  9.4941868039732952e-10  1.1948892555736467e-09  1.4418165017147915e-09  1.6814041801549347e-09  1.9046780112905152e-09  2.1028281270172959e-09  2.2675496325655374e-09  2.3913681893048302e-09  2.4679380619815171e-09  2.4923010876603261e-09  2.4610964804789539e-09  2.3727132300871578e-09  2.2273790111120481e-09  2.0271819125728750e-09  1.7760238272903862e-09  1.4795069146486118e-09  1.1447570687001378e-09  7.8019069771038752e-10  3.9523327523401772e-10  0.0000000000000000e+00  0.0000000000000000e+00  -9.2588375984355462e-11  -1.7677092664384467e-10  -2.4472824035730610e-10  -2.8935690827556154e-10  -3.0458492672805326e-10  -2.8564617079121412e-10  -2.2930303783539611e-10  -1.3400835661391576e-10  -5.2131123137046691e-19  1.7067575648055071e-10  3.7421334604499195e-10  6.0516787120052539e-10  8.5664157958495867e-10  1.1205299063230447e-09  1.3878178266233056e-09  1.6489152893354380e-09  1.8940189631604842e-09  2.1134864764513616e-09  2.2982088102912701e-09  2.4399665331344784e-09  2.5317561429213568e-09  2.5680738872769611e-09  2.5451460218913792e-09  2.4610964804790064e-09  2.3160452895047905e-09  2.1121336765687337e-09  1.8534745928641987e-09  1.5460301922655938e-09  1.1974205770129121e-09  8.1667073241040221e-10  4.1390493988662499e-10  0.0000000000000000e+00  0.0000000000000000e+00  -1.2122894706829309e-10  -2.3320302092955144e-10  -3.2730992409037389e-10  -3.9570973910846158e-10  -4.3167622910651668e-10  -4.2989413374515152e-10  -3.8670069856479964e-10  -3.0026182582416313e-10  -1.7067575760186264e-10  -6.0297791327555096e-19  2.0779983057297386e-10  4.4697755312391529e-10  7.1020568015110962e-10  9.8883896656405534e-10  1.2732322932981263e-09  1.5531008251023847e-09  1.8179087173380195e-09  2.0572715129385825e-09  2.2613568058120939e-09  2.4212677735173461e-09  2.5293947992938661e-09  2.5797215880302221e-09  2.5680738872770285e-09  2.4923010876604444e-09  2.3523835142562407e-09  2.1504610346855326e-09  1.8907815936911076e-09  1.5795713247666287e-09  1.2248308730393268e-09  8.3606537969297267e-10  4.2395812388975547e-10  0.0000000000000000e+00  0.0000000000000000e+00  -1.5306618475901621e-10  -2.9607847792564121e-10  -4.1967296179919374e-10  -5.1530774096425769e-10  -5.7562723443703669e-10  -5.9477981066408362e-10  -5.6867625200588340e-10  -4.9517881715057006e-10  -3.7421334723417193e-10  -2.0779983185193653e-10  -6.7820266100027894e-19  2.4321628595021996e-10  5.1418093175983335e-10  8.0380591266777144e-10  1.1019194702202782e-09  1.3976474083615809e-09  1.6798249468018098e-09  1.9374233767038171e-09  2.1599751607241629e-09  2.3379811430945368e-09  2.4632841857974486e-09  2.5293947992939480e-09  2.5317561429215040e-09  2.4679380619817119e-09  2.3377525181352873e-09  2.1432857543965996e-09  1.8888457021548899e-09  1.5808263651536693e-09  1.2274940823932976e-09  8.3870355946869749e-10  4.2555425369368833e-10  0.0000000000000000e+00  0.0000000000000000e+00  -1.8734797405917615e-10  -3.6390618171129175e-10  -5.1961168491228865e-10  -6.4526591575455352e-10  -7.3291880147845208e-10  -7.7620402609397118e-10  -7.7061228131621590e-10  -7.1369175017450800e-10  -6.0516787244610130e-10  -4.4697755446354774e-10  -2.4321628737098502e-10  -7.4409765682905067e-19  2.7475322660596796e-10  5.7161337653935623e-10  8.7998961367546331e-10  1.1885289457738787e-09  1.4855471952728922e-09  1.7594757851053435e-09  1.9993072046640407e-09  2.1950220417587474e-09  2.3379811430946327e-09  2.4212677735175223e-09  2.4399665331347166e-09  2.3913681893051110e-09  2.2750923958367481e-09  2.0931233971088931e-09  1.8497571311509309e-09  1.5514615268073855e-09  1.2066551075959044e-09  8.2541214279516795e-10  4.1910540556852177e-10  0.0000000000000000e+00  0.0000000000000000e+00  -2.2314836575955928e-10  -4.3484804610091244e-10  -6.2440196437763985e-10  -7.8201194971084999e-10  -8.9917929960844638e-10  -9.6905473944033839e-10  -9.8672412139496011e-10  -9.4941868157741888e-10  -8.5664158087491882e-10  -7.1020568153849386e-10  -5.1418093323125883e-10  -2.7475322814724480e-10  -7.9813445006937605e-19  3.0040893705342765e-10  6.1557394561079044e-10  9.3377765523340747e-10  1.2429308540770748e-09  1.5310350854830332e-09  1.7866442102657552e-09  1.9993072046641490e-09  2.1599751607243660e-09  2.2613568058123739e-09  2.2982088102916076e-09  2.2675496325659113e-09  2.1687885639299232e-09  2.0037648707303981e-09  1.7766953647473236e-09  1.4940322334849513e-09  1.1642363967037827e-09  7.9747489288952562e-10  4.0525371538869623e-10  0.0000000000000000e+00  0.0000000000000000e+00  -2.5939947544531557e-10  -5.0678241156459224e-10  -7.3089536428019566e-10  -9.2141005379232847e-10  -1.0693367533826473e-09  -1.1673858181821629e-09  -1.2102633156320821e-09  -1.1948892567829496e-09  -1.1205299076449538e-09  -9.8883896798581752e-10  -8.0380591417567382e-10  -5.7161337811885854e-10  -3.0040893868930314e-10  -8.3824108580215716e-19  3.1851659599578539e-10  6.4317607829219397e-10  9.6160220854708868e-10  1.2614812276966196e-09  1.5310350854831519e-09  1.7594757851055689e-09  1.9374233767041343e-09  2.0572715129389721e-09  2.1134864764518029e-09  2.1028281270177666e-09  2.0244841986471619e-09  1.8801126897515727e-09  1.6737906060978138e-09  1.4118709022000402e-09  1.1027529848949610e-09  7.5657545835950328e-10  3.8484277538621755e-10  0.0000000000000000e+00  0.0000000000000000e+00  -2.9492962049257902e-10  -5.7737987672351455e-10  -8.3563183314118883e-10  -1.0589092992638281e-09  -1.2378012421903835e-09  -1.3646315771797330e-09  -1.4337620504644214e-09  -1.4418165029416538e-09  -1.3878178279644242e-09  -1.2732322947405653e-09  -1.1019194717501266e-09  -8.7998961527797096e-10  -6.1557394727050973e-10  -3.1851659769672065e-10  -8.6288130941526778e-19  3.2788190294421233e-10  6.5258629782702380e-10  9.6160220854721441e-10  1.2429308540773178e-09  1.4855471952732394e-09  1.6798249468022445e-09  1.8179087173385216e-09  1.8940189631610314e-09  1.9046780112910835e-09  1.8488484307687344e-09  1.7279783888841631e-09  1.5459521945908047e-09  1.3089478674065625e-09  1.0252071375415980e-09  7.0472664491577601e-10  3.5888213187758158e-10  0.0000000000000000e+00  0.0000000000000000e+00  -3.2850626275128349e-10  -6.4418871525064264e-10  -9.3496669592893374e-10  -1.1897108662319210e-09  -1.3986706833206852e-09  -1.5538489914080262e-09  -1.6493093346182613e-09  -1.6814041813875370e-09  -1.6489152906828467e-09  -1.5531008265516049e-09  -1.3976474098986380e-09  -1.1885289473839544e-09  -9.3377765690098208e-10  -6.4317608000119720e-10  -3.2788190467817837e-10  -8.7111296441299692e-19  3.2788190294434173e-10  6.4317607829244781e-10  9.3377765523377598e-10  1.1885289457743480e-09  1.3976474083621324e-09  1.5531008251029976e-09  1.6489152893360885e-09  1.6814041801555979e-09  1.6493093335130055e-09  1.5538489904400984e-09  1.3986706824994065e-09  1.1897108655652010e-09  9.3496669542319324e-10  6.4418871491075196e-10  3.2850626258051588e-10  0.0000000000000000e+00  0.0000000000000000e+00  -3.5888213204749694e-10  -7.0472664525397531e-10  -1.0252071380448291e-09  -1.3089478680699833e-09  -1.5459521954080298e-09  -1.7279783898473258e-09  -1.8488484318685622e-09  -1.9046780125169866e-09  -1.8940189645012067e-09  -1.8179087187800640e-09  -1.6798249483312727e-09  -1.4855471968750300e-09  -1.2429308557364453e-09  -9.6160221024770129e-10  -6.5258629955249413e-10  -3.2788190467804897e-10  -8.6262376635556726e-19  3.1851659599616496e-10  6.1557394561128117e-10  8.7998961367604978e-10  1.1019194702209414e-09  1.2732322932988439e-09  1.3878178266240529e-09  1.4418165017155430e-09  1.4337620493643821e-09  1.3646315762163614e-09  1.2378012413729607e-09  1.0589092986002295e-09  8.3563183263780920e-10  5.7737987638520574e-10  2.9492962032260374e-10  0.0000000000000000e+00  0.0000000000000000e+00  -3.8484277555364454e-10  -7.5657545869275470e-10  -1.1027529853908369e-09  -1.4118709028537732e-09  -1.6737906069031163e-09  -1.8801126907006954e-09  -2.0244841997309708e-09  -2.1028281282258291e-09  -2.1134864777724894e-09  -2.0572715143595679e-09  -1.9374233782109612e-09  -1.7594757866841182e-09  -1.5310350871182231e-09  -1.2614812293724679e-09  -9.6160221024757577e-10  -6.4317608000094346e-10  -3.1851659769634119e-10  -8.3774314137852176e-19  3.0040893705403206e-10  5.7161337654005096e-10  8.0380591266853648e-10  9.8883896656486763e-10  1.1205299063238789e-09  1.1948892555744768e-09  1.2102633145478543e-09  1.1673858172326268e-09  1.0693367525769538e-09  9.2141005313824326e-10  7.3089536378402564e-10  5.0678241123112409e-10  2.5939947527776988e-10  0.0000000000000000e+00  0.0000000000000000e+00  -4.0525371555202304e-10  -7.9747489321462104e-10  -1.1642363971875295e-09  -1.4940322341227034e-09  -1.7766953655329500e-09  -2.0037648716563433e-09  -2.1687885649872784e-09  -2.2675496337445018e-09  -2.2982088115800894e-09  -2.2613568071983448e-09  -2.1599751621944822e-09  -1.9993072062042567e-09  -1.7866442118610249e-09  -1.5310350871181046e-09  -1.2429308557362025e-09  -9.3377765690061357e-10  -6.1557394727001911e-10  -3.0040893868869873e-10  -7.9742898407571306e-19  2.7475322660675750e-10  5.1418093176068638e-10  7.1020568015200277e-10  8.5664157958586640e-10  9.4941868039822515e-10  9.8672412033698824e-10  9.6905473851378526e-10  8.9917929882224357e-10  7.8201194907257944e-10  6.2440196389345951e-10  4.3484804577549757e-10  2.2314836559605728e-10  0.0000000000000000e+00  0.0000000000000000e+00  -4.1910540572617640e-10  -8.2541214310897815e-10  -1.2066551080628660e-09  -1.5514615274230176e-09  -1.8497571319093192e-09  -2.0931233980027473e-09  -2.2750923968574712e-09  -2.3913681904428834e-09  -2.4399665343785894e-09  -2.4212677748555238e-09  -2.3379811445138836e-09  -2.1950220432455843e-09  -1.9993072062041484e-09  -1.7594757866838928e-09  -1.4855471968746828e-09  -1.1885289473834856e-09  -8.7998961527738470e-10  -5.7161337811816392e-10  -2.7475322814645536e-10  -7.4323066200255065e-19  2.4321628595114356e-10  4.4697755312487198e-10  6.0516787120148957e-10  7.1369174903595407e-10  7.7061228029469334e-10  7.7620402519932789e-10  7.3291880071931545e-10  6.4526591513824761e-10  5.1961168444476338e-10  3.6390618139706585e-10  1.8734797390129338e-10  0.0000000000000000e+00  0.0000000000000000e+00  -4.2555425384415367e-10  -8.3870355976820284e-10  -1.2274940828389805e-09  -1.5808263657412571e-09  -1.8888457028787416e-09  -2.1432857552497603e-09  -2.3377525191095543e-09  -2.4679380630677148e-09  -2.5317561441087940e-09  -2.5293948005711004e-09  -2.4632841871521706e-09  -2.3379811445137876e-09  -2.1599751621942796e-09  -1.9374233782106444e-09  -1.6798249483308383e-09  -1.3976474098980867e-09  -1.1019194717494638e-09  -8.0380591417490899e-10  -5.1418093323040580e-10  -2.4321628737006147e-10  -6.7722933364912570e-19  2.0779983057397361e-10  3.7421334604599284e-10  4.9517881606362661e-10  5.6867625103065380e-10  5.9477980980997197e-10  5.7562723371228234e-10  5.1530774037585631e-10  4.1967296135282966e-10  2.9607847762563283e-10  1.5306618460827441e-10  0.0000000000000000e+00  0.0000000000000000e+00  -4.2395812403158411e-10  -8.3606537997529189e-10  -1.2248308734594430e-09  -1.5795713253205190e-09  -1.8907815943734580e-09  -2.1504610354897904e-09  -2.3523835151746763e-09  -2.4923010886842260e-09  -2.5680738883963089e-09  -2.5797215892342319e-09  -2.5293948005710185e-09  -2.4212677748553480e-09  -2.2613568071980648e-09  -2.0572715143591783e-09  -1.8179087187795621e-09  -1.5531008265509924e-09  -1.2732322947398479e-09  -9.8883896798500522e-10  -7.1020568153760081e-10  -4.4697755446259116e-10  -2.0779983185093683e-10  -6.0195794979429338e-19  1.7067575648156639e-10  3.0026182479930553e-10  3.8670069764526250e-10  4.2989413293980418e-10  4.3167622842313098e-10  3.9570973855363701e-10  3.2730992366947425e-10  2.3320302064665304e-10  1.2122894692614559e-10  0.0000000000000000e+00  0.0000000000000000e+00  -4.1390494001845318e-10  -8.1667073267282051e-10  -1.1974205774034216e-09  -1.5460301927804596e-09  -1.8534745934984849e-09  -2.1121336773163520e-09  -2.3160452903585588e-09  -2.4610964814307174e-09  -2.5451460229318797e-09  -2.5680738883962419e-09  -2.5317561441086472e-09  -2.4399665343783516e-09  -2.2982088115797524e-09  -2.1134864777720485e-09  -1.8940189645006599e-09  -1.6489152906821966e-09  -1.3878178279636769e-09  -1.1205299076441192e-09  -8.5664158087401109e-10  -6.0516787244513722e-10  -3.7421334723317104e-10  -1.7067575760084696e-10  -5.2030419767037036e-19  1.3400835566102332e-10  2.2930303698041638e-10  2.8564617004239605e-10  3.0458492609262583e-10  2.8935690775966425e-10  2.4472823996593004e-10  1.7677092638078461e-10  9.2588375852173267e-11  0.0000000000000000e+00  0.0000000000000000e+00  -3.9523327535457831e-10  -7.8019069795038240e-10  -1.1447570690572869e-09  -1.4795069151195034e-09  -1.7760238278705099e-09  -2.0271819132566651e-09  -2.2273790118929381e-09  -2.3727132309576434e-09  -2.4610964814306649e-09  -2.4923010886841085e-09  -2.4679380630675204e-09  -2.3913681904426034e-09  -2.2675496337441287e-09  -2.1028281282253589e-09  -1.9046780125164188e-09  -1.6814041813868742e-09  -1.4418165029409023e-09  -1.1948892567821196e-09  -9.4941868157652325e-10  -7.1369175017356295e-10  -4.9517881714959419e-10  -3.0026182582317713e-10  -1.3400835661294160e-10  -4.3539975948505431e-19  9.9778580