<?xml version="1.0"?>
<VTKFile type="UnstructuredGrid"  version="0.1"  >
<UnstructuredGrid>
<Piece  NumberOfPoints="1089" NumberOfCells="2048">
<Points>
<DataArray  type="Float64"  NumberOfComponents="3"  format="ascii">0 0 0  0.03125 0 0  0.0625 0 0  0.09375 0 0  0.125 0 0  0.15625 0 0  0.1875 0 0  0.21875 0 0  0.25 0 0  0.28125 0 0  0.3125 0 0  0.34375 0 0  0.375 0 0  0.40625 0 0  0.4375 0 0  0.46875 0 0  0.5 0 0  0.53125 0 0  0.5625 0 0  0.59375 0 0  0.625 0 0  0.65625 0 0  0.6875 0 0  0.71875 0 0  0.75 0 0  0.78125 0 0  0.8125 0 0  0.84375 0 0  0.875 0 0  0.90625 0 0  0.9375 0 0  0.96875 0 0  1 0 0  0 0.03125 0  0.03125 0.03125 0  0.0625 0.03125 0  0.09375 0.03125 0  0.125 0.03125 0  0.15625 0.03125 0  0.1875 0.03125 0  0.21875 0.03125 0  0.25 0.03125 0  0.28125 0.03125 0  0.3125 0.03125 0  0.34375 0.03125 0  0.375 0.03125 0  0.40625 0.03125 0  0.4375 0.03125 0  0.46875 0.03125 0  0.5 0.03125 0  0.53125 0.03125 0  0.5625 0.03125 0  0.59375 0.03125 0  0.625 0.03125 0  0.65625 0.03125 0  0.6875 0.03125 0  0.71875 0.03125 0  0.75 0.03125 0  0.78125 0.03125 0  0.8125 0.03125 0  0.84375 0.03125 0  0.875 0.03125 0  0.90625 0.03125 0  0.9375 0.03125 0  0.96875 0.03125 0  1 0.03125 0  0 0.0625 0  0.03125 0.0625 0  0.0625 0.0625 0  0.09375 0.0625 0  0.125 0.0625 0  0.15625 0.0625 0  0.1875 0.0625 0  0.21875 0.0625 0  0.25 0.0625 0  0.28125 0.0625 0  0.3125 0.0625 0  0.34375 0.0625 0  0.375 0.0625 0  0.40625 0.0625 0  0.4375 0.0625 0  0.46875 0.0625 0  0.5 0.0625 0  0.53125 0.0625 0  0.5625 0.0625 0  0.59375 0.0625 0  0.625 0.0625 0  0.65625 0.0625 0  0.6875 0.0625 0  0.71875 0.0625 0  0.75 0.0625 0  0.78125 0.0625 0  0.8125 0.0625 0  0.84375 0.0625 0  0.875 0.0625 0  0.90625 0.0625 0  0.9375 0.0625 0  0.96875 0.0625 0  1 0.0625 0  0 0.09375 0  0.03125 0.09375 0  0.0625 0.09375 0  0.09375 0.09375 0  0.125 0.09375 0  0.15625 0.09375 0  0.1875 0.09375 0  0.21875 0.09375 0  0.25 0.09375 0  0.28125 0.09375 0  0.3125 0.09375 0  0.34375 0.09375 0  0.375 0.09375 0  0.40625 0.09375 0  0.4375 0.09375 0  0.46875 0.09375 0  0.5 0.09375 0  0.53125 0.09375 0  0.5625 0.09375 0  0.59375 0.09375 0  0.625 0.09375 0  0.65625 0.09375 0  0.6875 0.09375 0  0.71875 0.09375 0  0.75 0.09375 0  0.78125 0.09375 0  0.8125 0.09375 0  0.84375 0.09375 0  0.875 0.09375 0  0.90625 0.09375 0  0.9375 0.09375 0  0.96875 0.09375 0  1 0.09375 0  0 0.125 0  0.03125 0.125 0  0.0625 0.125 0  0.09375 0.125 0  0.125 0.125 0  0.15625 0.125 0  0.1875 0.125 0  0.21875 0.125 0  0.25 0.125 0  0.28125 0.125 0  0.3125 0.125 0  0.34375 0.125 0  0.375 0.125 0  0.40625 0.125 0  0.4375 0.125 0  0.46875 0.125 0  0.5 0.125 0  0.53125 0.125 0  0.5625 0.125 0  0.59375 0.125 0  0.625 0.125 0  0.65625 0.125 0  0.6875 0.125 0  0.71875 0.125 0  0.75 0.125 0  0.78125 0.125 0  0.8125 0.125 0  0.84375 0.125 0  0.875 0.125 0  0.90625 0.125 0  0.9375 0.125 0  0.96875 0.125 0  1 0.125 0  0 0.15625 0  0.03125 0.15625 0  0.0625 0.15625 0  0.09375 0.15625 0  0.125 0.15625 0  0.15625 0.15625 0  0.1875 0.15625 0  0.21875 0.15625 0  0.25 0.15625 0  0.28125 0.15625 0  0.3125 0.15625 0  0.34375 0.15625 0  0.375 0.15625 0  0.40625 0.15625 0  0.4375 0.15625 0  0.46875 0.15625 0  0.5 0.15625 0  0.53125 0.15625 0  0.5625 0.15625 0  0.59375 0.15625 0  0.625 0.15625 0  0.65625 0.15625 0  0.6875 0.15625 0  0.71875 0.15625 0  0.75 0.15625 0  0.78125 0.15625 0  0.8125 0.15625 0  0.84375 0.15625 0  0.875 0.15625 0  0.90625 0.15625 0  0.9375 0.15625 0  0.96875 0.15625 0  1 0.15625 0  0 0.1875 0  0.03125 0.1875 0  0.0625 0.1875 0  0.09375 0.1875 0  0.125 0.1875 0  0.15625 0.1875 0  0.1875 0.1875 0  0.21875 0.1875 0  0.25 0.1875 0  0.28125 0.1875 0  0.3125 0.1875 0  0.34375 0.1875 0  0.375 0.1875 0  0.40625 0.1875 0  0.4375 0.1875 0  0.46875 0.1875 0  0.5 0.1875 0  0.53125 0.1875 0  0.5625 0.1875 0  0.59375 0.1875 0  0.625 0.1875 0  0.65625 0.1875 0  0.6875 0.1875 0  0.71875 0.1875 0  0.75 0.1875 0  0.78125 0.1875 0  0.8125 0.1875 0  0.84375 0.1875 0  0.875 0.1875 0  0.90625 0.1875 0  0.9375 0.1875 0  0.96875 0.1875 0  1 0.1875 0  0 0.21875 0  0.03125 0.21875 0  0.0625 0.21875 0  0.09375 0.21875 0  0.125 0.21875 0  0.15625 0.21875 0  0.1875 0.21875 0  0.21875 0.21875 0  0.25 0.21875 0  0.28125 0.21875 0  0.3125 0.21875 0  0.34375 0.21875 0  0.375 0.21875 0  0.40625 0.21875 0  0.4375 0.21875 0  0.46875 0.21875 0  0.5 0.21875 0  0.53125 0.21875 0  0.5625 0.21875 0  0.59375 0.21875 0  0.625 0.21875 0  0.65625 0.21875 0  0.6875 0.21875 0  0.71875 0.21875 0  0.75 0.21875 0  0.78125 0.21875 0  0.8125 0.21875 0  0.84375 0.21875 0  0.875 0.21875 0  0.90625 0.21875 0  0.9375 0.21875 0  0.96875 0.21875 0  1 0.21875 0  0 0.25 0  0.03125 0.25 0  0.0625 0.25 0  0.09375 0.25 0  0.125 0.25 0  0.15625 0.25 0  0.1875 0.25 0  0.21875 0.25 0  0.25 0.25 0  0.28125 0.25 0  0.3125 0.25 0  0.34375 0.25 0  0.375 0.25 0  0.40625 0.25 0  0.4375 0.25 0  0.46875 0.25 0  0.5 0.25 0  0.53125 0.25 0  0.5625 0.25 0  0.59375 0.25 0  0.625 0.25 0  0.65625 0.25 0  0.6875 0.25 0  0.71875 0.25 0  0.75 0.25 0  0.78125 0.25 0  0.8125 0.25 0  0.84375 0.25 0  0.875 0.25 0  0.90625 0.25 0  0.9375 0.25 0  0.96875 0.25 0  1 0.25 0  0 0.28125 0  0.03125 0.28125 0  0.0625 0.28125 0  0.09375 0.28125 0  0.125 0.28125 0  0.15625 0.28125 0  0.1875 0.28125 0  0.21875 0.28125 0  0.25 0.28125 0  0.28125 0.28125 0  0.3125 0.28125 0  0.34375 0.28125 0  0.375 0.28125 0  0.40625 0.28125 0  0.4375 0.28125 0  0.46875 0.28125 0  0.5 0.28125 0  0.53125 0.28125 0  0.5625 0.28125 0  0.59375 0.28125 0  0.625 0.28125 0  0.65625 0.28125 0  0.6875 0.28125 0  0.71875 0.28125 0  0.75 0.28125 0  0.78125 0.28125 0  0.8125 0.28125 0  0.84375 0.28125 0  0.875 0.28125 0  0.90625 0.28125 0  0.9375 0.28125 0  0.96875 0.28125 0  1 0.28125 0  0 0.3125 0  0.03125 0.3125 0  0.0625 0.3125 0  0.09375 0.3125 0  0.125 0.3125 0  0.15625 0.3125 0  0.1875 0.3125 0  0.21875 0.3125 0  0.25 0.3125 0  0.28125 0.3125 0  0.3125 0.3125 0  0.34375 0.3125 0  0.375 0.3125 0  0.40625 0.3125 0  0.4375 0.3125 0  0.46875 0.3125 0  0.5 0.3125 0  0.53125 0.3125 0  0.5625 0.3125 0  0.59375 0.3125 0  0.625 0.3125 0  0.65625 0.3125 0  0.6875 0.3125 0  0.71875 0.3125 0  0.75 0.3125 0  0.78125 0.3125 0  0.8125 0.3125 0  0.84375 0.3125 0  0.875 0.3125 0  0.90625 0.3125 0  0.9375 0.3125 0  0.96875 0.3125 0  1 0.3125 0  0 0.34375 0  0.03125 0.34375 0  0.0625 0.34375 0  0.09375 0.34375 0  0.125 0.34375 0  0.15625 0.34375 0  0.1875 0.34375 0  0.21875 0.34375 0  0.25 0.34375 0  0.28125 0.34375 0  0.3125 0.34375 0  0.34375 0.34375 0  0.375 0.34375 0  0.40625 0.34375 0  0.4375 0.34375 0  0.46875 0.34375 0  0.5 0.34375 0  0.53125 0.34375 0  0.5625 0.34375 0  0.59375 0.34375 0  0.625 0.34375 0  0.65625 0.34375 0  0.6875 0.34375 0  0.71875 0.34375 0  0.75 0.34375 0  0.78125 0.34375 0  0.8125 0.34375 0  0.84375 0.34375 0  0.875 0.34375 0  0.90625 0.34375 0  0.9375 0.34375 0  0.96875 0.34375 0  1 0.34375 0  0 0.375 0  0.03125 0.375 0  0.0625 0.375 0  0.09375 0.375 0  0.125 0.375 0  0.15625 0.375 0  0.1875 0.375 0  0.21875 0.375 0  0.25 0.375 0  0.28125 0.375 0  0.3125 0.375 0  0.34375 0.375 0  0.375 0.375 0  0.40625 0.375 0  0.4375 0.375 0  0.46875 0.375 0  0.5 0.375 0  0.53125 0.375 0  0.5625 0.375 0  0.59375 0.375 0  0.625 0.375 0  0.65625 0.375 0  0.6875 0.375 0  0.71875 0.375 0  0.75 0.375 0  0.78125 0.375 0  0.8125 0.375 0  0.84375 0.375 0  0.875 0.375 0  0.90625 0.375 0  0.9375 0.375 0  0.96875 0.375 0  1 0.375 0  0 0.40625 0  0.03125 0.40625 0  0.0625 0.40625 0  0.09375 0.40625 0  0.125 0.40625 0  0.15625 0.40625 0  0.1875 0.40625 0  0.21875 0.40625 0  0.25 0.40625 0  0.28125 0.40625 0  0.3125 0.40625 0  0.34375 0.40625 0  0.375 0.40625 0  0.40625 0.40625 0  0.4375 0.40625 0  0.46875 0.40625 0  0.5 0.40625 0  0.53125 0.40625 0  0.5625 0.40625 0  0.59375 0.40625 0  0.625 0.40625 0  0.65625 0.40625 0  0.6875 0.40625 0  0.71875 0.40625 0  0.75 0.40625 0  0.78125 0.40625 0  0.8125 0.40625 0  0.84375 0.40625 0  0.875 0.40625 0  0.90625 0.40625 0  0.9375 0.40625 0  0.96875 0.40625 0  1 0.40625 0  0 0.4375 0  0.03125 0.4375 0  0.0625 0.4375 0  0.09375 0.4375 0  0.125 0.4375 0  0.15625 0.4375 0  0.1875 0.4375 0  0.21875 0.4375 0  0.25 0.4375 0  0.28125 0.4375 0  0.3125 0.4375 0  0.34375 0.4375 0  0.375 0.4375 0  0.40625 0.4375 0  0.4375 0.4375 0  0.46875 0.4375 0  0.5 0.4375 0  0.53125 0.4375 0  0.5625 0.4375 0  0.59375 0.4375 0  0.625 0.4375 0  0.65625 0.4375 0  0.6875 0.4375 0  0.71875 0.4375 0  0.75 0.4375 0  0.78125 0.4375 0  0.8125 0.4375 0  0.84375 0.4375 0  0.875 0.4375 0  0.90625 0.4375 0  0.9375 0.4375 0  0.96875 0.4375 0  1 0.4375 0  0 0.46875 0  0.03125 0.46875 0  0.0625 0.46875 0  0.09375 0.46875 0  0.125 0.46875 0  0.15625 0.46875 0  0.1875 0.46875 0  0.21875 0.46875 0  0.25 0.46875 0  0.28125 0.46875 0  0.3125 0.46875 0  0.34375 0.46875 0  0.375 0.46875 0  0.40625 0.46875 0  0.4375 0.46875 0  0.46875 0.46875 0  0.5 0.46875 0  0.53125 0.46875 0  0.5625 0.46875 0  0.59375 0.46875 0  0.625 0.46875 0  0.65625 0.46875 0  0.6875 0.46875 0  0.71875 0.46875 0  0.75 0.46875 0  0.78125 0.46875 0  0.8125 0.46875 0  0.84375 0.46875 0  0.875 0.46875 0  0.90625 0.46875 0  0.9375 0.46875 0  0.96875 0.46875 0  1 0.46875 0  0 0.5 0  0.03125 0.5 0  0.0625 0.5 0  0.09375 0.5 0  0.125 0.5 0  0.15625 0.5 0  0.1875 0.5 0  0.21875 0.5 0  0.25 0.5 0  0.28125 0.5 0  0.3125 0.5 0  0.34375 0.5 0  0.375 0.5 0  0.40625 0.5 0  0.4375 0.5 0  0.46875 0.5 0  0.5 0.5 0  0.53125 0.5 0  0.5625 0.5 0  0.59375 0.5 0  0.625 0.5 0  0.65625 0.5 0  0.6875 0.5 0  0.71875 0.5 0  0.75 0.5 0  0.78125 0.5 0  0.8125 0.5 0  0.84375 0.5 0  0.875 0.5 0  0.90625 0.5 0  0.9375 0.5 0  0.96875 0.5 0  1 0.5 0  0 0.53125 0  0.03125 0.53125 0  0.0625 0.53125 0  0.09375 0.53125 0  0.125 0.53125 0  0.15625 0.53125 0  0.1875 0.53125 0  0.21875 0.53125 0  0.25 0.53125 0  0.28125 0.53125 0  0.3125 0.53125 0  0.34375 0.53125 0  0.375 0.53125 0  0.40625 0.53125 0  0.4375 0.53125 0  0.46875 0.53125 0  0.5 0.53125 0  0.53125 0.53125 0  0.5625 0.53125 0  0.59375 0.53125 0  0.625 0.53125 0  0.65625 0.53125 0  0.6875 0.53125 0  0.71875 0.53125 0  0.75 0.53125 0  0.78125 0.531
[...]
<PointData  Scalars="phi"> 
<DataArray  type="Float64"  Name="phi"  format="ascii">0.0000000000000000e+00  0.0000000000000000e+00  0.0000000000000000e+00  0.0000000000000000e+00  0.0000000000000000e+00  0.0000000000000000e+00  0.0000000000000000e+00  0.0000000000000000e+00  0.0000000000000000e+00  0.0000000000000000e+00  0.0000000000000000e+00  0.0000000000000000e+00  0.0000000000000000e+00  0.0000000000000000e+00  0.0000000000000000e+00  0.0000000000000000e+00  0.0000000000000000e+00  0.0000000000000000e+00  0.0000000000000000e+00  0.0000000000000000e+00  0.0000000000000000e+00  0.0000000000000000e+00  0.0000000000000000e+00  0.0000000000000000e+00  0.0000000000000000e+00  0.0000000000000000e+00  0.0000000000000000e+00  0.0000000000000000e+00  0.0000000000000000e+00  0.0000000000000000e+00  0.0000000000000000e+00  0.0000000000000000e+00  0.0000000000000000e+00  0.0000000000000000e+00  -1.8274262310490249e-16  3.0997861368886565e-05  1.2221974380879899e-04  2.9987174713290334e-04  5.8588535075333552e-04  9.9682097609217653e-04  1.5429824465458793e-03  2.2277819608050903e-03  3.0473836752779649e-03  3.9906424417579973e-03  5.0393424411856458e-03  6.1687286118208076e-03  7.3483122552188574e-03  8.5429214215506002e-03  9.7139570257731289e-03  1.0820807492686487e-02  1.1822368383881426e-02  1.2678609168013165e-02  1.3352127225727668e-02  1.3809629416481499e-02  1.4023284075071129e-02  1.3971891065601824e-02  1.3641824338086000e-02  1.3027710085169709e-02  1.2132813830426744e-02  1.0969121375443071e-02  9.5571114573046508e-03  7.9252327926318793e-03  6.1091173636593794e-03  4.1505939616030343e-03  2.0966414319041888e-03  0.0000000000000000e+00  0.0000000000000000e+00  -3.0997861369600729e-05  -6.9802471645807783e-16  1.5140512406150943e-04  4.7565687588978911e-04  1.0167001066725110e-03  1.8077902290774450e-03  2.8697229699497203e-03  4.2095645552012754e-03  5.8199372658599372e-03  7.6788929914801823e-03  9.7503841459904723e-03  1.1985317827059996e-02  1.4323156211669302e-02  1.6694004726952538e-02  1.9021110322596707e-02  2.1223675930440923e-02  2.3219884551740330e-02  2.4930017851845728e-02  2.6279550000767274e-02  2.7202097944378004e-02  2.7642114320795108e-02  2.7557218676183524e-02  2.6920076152759369e-02  2.5719749954034019e-02  2.3962474079503370e-02  2.1671815479065042e-02  1.8888219418807594e-02  1.5667958301046479e-02  1.2081532922364663e-02  8.2116074294795102e-03  4.1505939616030465e-03  0.0000000000000000e+00  0.0000000000000000e+00  -1.2221974380982964e-04  -1.5140512406352382e-04  -1.4522771771169904e-15  4.1069601143007856e-04  1.1467565164542789e-03  2.2583437829543644e-03  3.7770610435687068e-03  5.7140518311455026e-03  8.0589270293011817e-03  1.0779567783172218e-02  1.3822818097405522e-02  1.7116046134680648e-02  2.0569519224678569e-02  2.4079505687411195e-02  2.7531987982862650e-02  3.0806847517356455e-02  3.3782362597592479e-02  3.6339848255616654e-02  3.8368260471293561e-02  3.9768587942745584e-02  4.0457861990949189e-02  4.0372629167284339e-02  3.9471751154654330e-02  3.7738421888563349e-02  3.5181321567845057e-02  3.1834860333077142e-02  2.7758499725837313e-02  2.3035176352168809e-02  1.7768887827039608e-02  1.2081532922364724e-02  6.1091173636594279e-03  0.0000000000000000e+00  0.0000000000000000e+00  -2.9987174713420422e-04  -4.7565687589233032e-04  -4.1069601143373818e-04  -2.3010363537528234e-15  8.4477632006271655e-04  2.1909804342027405e-03  4.0814518159374338e-03  6.5319987500734407e-03  9.5299679674914345e-03  1.3033970281092417e-02  1.6974780406468284e-02  2.1257383375095595e-02  2.5764095173942472e-02  3.0358643197823481e-02  3.4891054398681745e-02  3.9203167112892727e-02  4.3134557676506140e-02  4.6528656063613651e-02  4.9238816563858472e-02  5.1134110279927147e-02  5.2104615960131641e-02  5.2066004028382323e-02  5.0963234949562806e-02  4.8773226285963082e-02  4.5506381704946634e-02  4.1206918298757354e-02  3.5951974159101632e-02  2.9849524212550289e-02  2.3035176352168975e-02  1.5667958301046669e-02  7.9252327926319990e-03  0.0000000000000000e+00  0.0000000000000000e+00  -5.8588535075484809e-04  -1.0167001066754631e-03  -1.1467565164585225e-03  -8.4477632006803760e-04  -3.0635992790599875e-15  1.4724214960005811e-03  3.6270762856216794e-03  6.4851590432942925e-03  1.0032686363083155e-02  1.4220137794925284e-02  1.8963545052784025e-02  2.4146995582879541e-02  2.9626461559472055e-02  3.5234813581964508e-02  4.0787831884041698e-02  4.6090988530056151e-02  5.0946743388612055e-02  5.5162075828989118e-02  5.8555963895884633e-02  6.0966523586403358e-02  6.2257532760288121e-02  6.2324086715716237e-02  6.1097164705318979e-02  5.8546927417026121e-02  5.4684613126628590e-02  4.9562952966937461e-02  4.3275081404798070e-02  3.5951974159101972e-02  2.7758499725837778e-02  1.8888219418808003e-02  9.5571114573048867e-03  0.0000000000000000e+00  0.0000000000000000e+00  -9.9682097609383232e-04  -1.8077902290806721e-03  -2.2583437829589914e-03  -2.1909804342085193e-03  -1.4724214960071967e-03  -3.5420772473157220e-15  2.2931786212233500e-03  5.4345128553208244e-03  9.4097717378461513e-03  1.4162643718345105e-02  1.9595994565244607e-02  2.5574794772017729e-02  3.1930611967024944e-02  3.8467502768318285e-02  4.4969083727730459e-02  5.1206514597133955e-02  5.6947090921493138e-02  6.1963118323933322e-02  6.6040728757566752e-02  6.8988299934726882e-02  7.0644153082668859e-02  7.0883230590220725e-02  6.9622492993223831e-02  6.6824822639694512e-02  6.2501277419504536e-02  5.6711599936686383e-02  4.9562952966938058e-02  4.1206918298758242e-02  3.1834860333078058e-02  2.1671815479065774e-02  1.0969121375443473e-02  0.0000000000000000e+00  0.0000000000000000e+00  -1.5429824465476023e-03  -2.8697229699530718e-03  -3.7770610435734955e-03  -4.0814518159433813e-03  -3.6270762856284331e-03  -2.2931786212304975e-03  -3.5436961219268356e-15  3.2869297274380717e-03  7.5543181251785836e-03  1.2740559477108025e-02  1.8737138387518268e-02  2.5391942990661904e-02  3.2514368879393740e-02  3.9882025096881810e-02  4.7248790907527823e-02  5.4353918997700278e-02  6.0931839308500782e-02  6.6722289478885019e-02  7.1480383976371006e-02  7.4986234961333748e-02  7.7053753743776973e-02  7.7538291749967833e-02  7.6342823070343332e-02  7.3422425249420498e-02  6.8786878892573580e-02  6.2501277419505480e-02  5.4684613126630068e-02  4.5506381704948293e-02  3.5181321567846591e-02  2.3962474079504532e-02  1.2132813830427368e-02  0.0000000000000000e+00  0.0000000000000000e+00  -2.2277819608068007e-03  -4.2095645552045939e-03  -5.7140518311502193e-03  -6.5319987500792528e-03  -6.4851590433008151e-03  -5.4345128553276081e-03  -3.2869297274446220e-03  -2.8990460886892985e-15  4.4151618368326083e-03  9.8932600974678177e-03  1.6316342454410694e-02  2.3517456890313159e-02  3.1286309086933403e-02  3.9376710463270043e-02  4.7515537193364765e-02  5.5412861299481135e-02  6.2772868620572145e-02  6.9305146892895783e-02  7.4735911576034320e-02  7.8818738025901530e-02  8.1344386130993165e-02  8.2149336925868552e-02  8.1122708700264459e-02  7.8211280891883755e-02  7.3422425249421830e-02  6.6824822639696732e-02  5.8546927417028764e-02  4.8773226285965740e-02  3.7738421888565674e-02  2.5719749954035726e-02  1.3027710085170613e-02  0.0000000000000000e+00  0.0000000000000000e+00  -3.0473836752795817e-03  -5.8199372658630615e-03  -8.0589270293055897e-03  -9.5299679674968035e-03  -1.0032686363089072e-02  -9.4097717378521413e-03  -7.5543181251841165e-03  -4.4151618368371342e-03  -1.4833816267036076e-15  5.6238402832043234e-03  1.2331021546715852e-02  1.9942151299980632e-02  2.8229929507224135e-02  3.6927259455868090e-02  4.5737016775315505e-02  5.4343106508045066e-02  6.2422387411781646e-02  6.9657008047674523e-02  7.5746682028838316e-02  8.0420430739264873e-02  8.3447340861067837e-02  8.4645920448207762e-02  8.3891689668606217e-02  8.1122708700266263e-02  7.6342823070346413e-02  6.9622492993227689e-02  6.1097164705323073e-02  5.0963234949566699e-02  3.9471751154657612e-02  2.6920076152761738e-02  1.3641824338087239e-02  0.0000000000000000e+00  0.0000000000000000e+00  -3.9906424417594415e-03  -7.6788929914829579e-03  -1.0779567783176089e-02  -1.3033970281097044e-02  -1.4220137794930237e-02  -1.4162643718349882e-02  -1.2740559477112081e-02  -9.8932600974705725e-03  -5.6238402832052064e-03  7.6566375475719336e-16  6.8476437464607505e-03  1.4729762750016882e-02  2.3404887391570286e-02  3.2588095004973394e-02  4.1961489070416740e-02  5.1186071601353050e-02  5.9914556404689435e-02  6.7804633518695187e-02  7.4532176517550813e-02  7.9803885243363820e-02  8.3368876864529734e-02  8.5028777194311275e-02  8.4645920448210066e-02  8.2149336925872604e-02  7.7538291749973051e-02  7.0883230590226526e-02  6.2324086715722052e-02  5.2066004028387645e-02  4.0372629167288739e-02  2.7557218676186653e-02  1.3971891065603448e-02  0.0000000000000000e+00  0.0000000000000000e+00  -5.0393424411868445e-03  -9.7503841459927534e-03  -1.3822818097408643e-02  -1.6974780406471893e-02  -1.8963545052787682e-02  -1.9595994565247792e-02  -1.8737138387520422e-02  -1.6316342454411221e-02  -1.2331021546714173e-02  -6.8476437464563156e-03  3.8427110963454033e-15  8.0152025796403816e-03  1.6945261546820956e-02  2.6490654595603486e-02  3.6316122670730297e-02  4.6063239462515733e-02  5.5363987886144168e-02  6.3854824357101242e-02  7.1190691781570628e-02  7.7058442959414275e-02  8.1189157529771239e-02  8.3368876864532537e-02  8.3447340861072875e-02  8.1344386130999841e-02  7.7053753743784648e-02  7.0644153082676880e-02  6.2257532760295872e-02  5.2104615960138573e-02  4.0457861990954830e-02  2.7642114320799084e-02  1.4023284075073181e-02  0.0000000000000000e+00  0.0000000000000000e+00  -6.1687286118216967e-03  -1.1985317827061654e-02  -1.7116046134682830e-02  -2.1257383375097944e-02  -2.4146995582881609e-02  -2.5574794772018988e-02  -2.5391942990661782e-02  -2.3517456890311067e-02  -1.9942151299975987e-02  -1.4729762750009132e-02  -8.0152025796290417e-03  7.6621481776932197e-15  9.0548959940111601e-03  1.8838684844814851e-02  2.9002289971768069e-02  3.9171500884468261e-02  4.8961180063076891e-02  5.7989990960475177e-02  6.5895082483061529e-02  7.2346165965916628e-02  7.7058442959417564e-02  7.9803885243369857e-02  8.0420430739273033e-02  7.8818738025911161e-02  7.4986234961344142e-02  6.8988299934737346e-02  6.0966523586413232e-02  5.1134110279935835e-02  3.9768587942752578e-02  2.7202097944382896e-02  1.3809629416484014e-02  0.0000000000000000e+00  0.0000000000000000e+00  -7.3483122552193813e-03  -1.4323156211670232e-02  -2.0569519224679655e-02  -2.5764095173943360e-02  -2.9626461559472295e-02  -3.1930611967024007e-02  -3.2514368879391055e-02  -3.1286309086928393e-02  -2.8229929507216211e-02  -2.3404887391558910e-02  -1.6945261546805663e-02  -9.0548959939915734e-03  1.2067240879800807e-14  9.9007156764486341e-03  2.0287991263072552e-02  3.0775603246174385e-02  4.0965063098941441e-02  5.0460866627889178e-02  5.8885709181733914e-02  6.5895082483065234e-02  7.1190691781577581e-02  7.4532176517560417e-02  7.5746682028849877e-02  7.4735911576047129e-02  7.1480383976384315e-02  6.6040728757579825e-02  5.8555963895896762e-02  4.9238816563869005e-02  3.8368260471301971e-02  2.6279550000773120e-02  1.3352127225730665e-02  0.0000000000000000e+00  0.0000000000000000e+00  -8.5429214215507199e-03  -1.6694004726952656e-02  -2.4079505687411074e-02  -3.0358643197822756e-02  -3.5234813581962739e-02  -3.8467502768314954e-02  -3.9882025096876363e-02  -3.9376710463261896e-02  -3.6927259455856683e-02  -3.2588095004958198e-02  -2.6490654595584064e-02  -1.8838684844790853e-02  -9.9007156764198342e-03  1.6839982110885259e-14  1.0497697463465469e-02  2.1197995525216271e-02  3.1692944207708858e-02  4.1576648166819143e-02  5.0460866627893237e-02  5.7989990960482900e-02  6.3854824357112094e-02  6.7804633518708537e-02  6.9657008047689636e-02  6.9305146892911895e-02  6.6722289478901353e-02  6.1963118323949067e-02  5.5162075829003544e-02  4.6528656063626064e-02  3.6339848255626493e-02  2.4930017851852546e-02  1.2678609168016653e-02  0.0000000000000000e+00  0.0000000000000000e+00  -9.7139570257728184e-03  -1.9021110322595972e-02  -2.7531987982861245e-02  -3.4891054398679330e-02  -4.0787831884037833e-02  -4.4969083727724631e-02  -4.7248790907519503e-02  -4.7515537193353385e-02  -4.5737016775300537e-02  -4.1961489070397665e-02  -3.6316122670706719e-02  -2.9002289971739658e-02  -2.0287991263039123e-02  -1.0497697463426988e-02  2.1707424719899284e-14  1.0806459252836551e-02  2.1508238781442878e-02  3.1692944207713160e-02  4.0965063098949761e-02  4.8961180063088777e-02  5.5363987886159052e-02  5.9914556404706623e-02  6.2422387411800381e-02  6.2772868620591601e-02  6.0931839308520128e-02  5.6947090921511546e-02  5.0946743388628750e-02  4.3134557676520420e-02  3.3782362597603741e-02  2.3219884551748102e-02  1.1822368383885394e-02  0.0000000000000000e+00  0.0000000000000000e+00  -1.0820807492685738e-02  -2.1223675930439310e-02  -3.0806847517353748e-02  -3.9203167112888591e-02  -4.6090988530050156e-02  -5.1206514597125621e-02  -5.4353918997689078e-02  -5.5412861299466543e-02  -5.4343106508026574e-02  -5.1186071601330180e-02  -4.6063239462488102e-02  -3.9171500884435592e-02  -3.0775603246136530e-02  -2.1197995525173232e-02  -1.0806459252788494e-02  2.6369159858272415e-14  1.0806459252840982e-02  2.1197995525224961e-02  3.0775603246187003e-02  3.9171500884484317e-02  4.6063239462534614e-02  5.1186071601374027e-02  5.4343106508067333e-02  5.5412861299503832e-02  5.4353918997722538e-02  5.1206514597154931e-02  4.6090988530075025e-02  3.9203167112908777e-02  3.0806847517369063e-02  2.1223675930449604e-02  1.0820807492690912e-02  0.0000000000000000e+00  0.0000000000000000e+00  -1.1822368383880243e-02  -2.3219884551737856e-02  -3.3782362597588496e-02  -4.3134557676500325e-02  -5.0946743388603999e-02  -5.6947090921482375e-02  -6.0931839308486821e-02  -6.2772868620554478e-02  -6.2422387411759817e-02  -5.9914556404662984e-02  -5.5363987886112756e-02  -4.8961180063040281e-02  -4.0965063098899523e-02  -3.1692944207661680e-02  -2.1508238781390642e-02  -1.0806459252784065e-02  3.0526918591204002e-14  1.0497697463478466e-02  2.0287991263089351e-02  2.9002289971788147e-02  3.6316122670753001e-02  4.1961489070441296e-02  4.5737016775341088e-02  4.7515537193390481e-02  4.7248790907552789e-02  4.4969083727753788e-02  4.0787831884062570e-02  3.4891054398699411e-02  2.7531987982876482e-02  1.9021110322606213e-02  9.7139570257779688e-03  0.0000000000000000e+00  0.0000000000000000e+00  -1.2678609168011576e-02  -2.4930017851842446e-02  -3.6339848255611470e-02  -4.6528656063606261e-02  -5.5162075828979140e-02  -6.1963118323920312e-02  -6.6722289478868518e-02  -6.9305146892875313e-02  -6.9657008047649641e-02  -6.7804633518665516e-02  -6.3854824357066464e-02  -5.7989990960435098e-02  -5.0460866627843728e-02  -4.1576648166768398e-02  -3.1692944207657378e-02  -2.1197995525164541e-02  -1.0497697463413995e-02  3.3890389141107186e-14  9.9007156764693294e-03  1.8838684844838634e-02  2.6490654595629673e-02  3.2588095005001191e-02  3.6927259455896651e-02  3.9376710463298457e-02  3.9882025096909163e-02  3.8467502768343681e-02  3.5234813581987122e-02  3.0358643197842552e-02  2.4079505687426089e-02  1.6694004726962752e-02  8.5429214215557939e-03  0.0000000000000000e+00  0.0000000000000000e+00  -1.3352127225725711e-02  -2.6279550000763263e-02  -3.8368260471287302e-02  -4.9238816563849673e-02  -5.8555963895872948e-02  -6.6040728757551764e-02  -7.1480383976352285e-02  -7.4735911576011421e-02  -7.5746682028810852e-02  -7.4532176517518423e-02  -7.1190691781533047e-02  -6.5895082483018591e-02  -5.8885709181685605e-02  -5.0460866627839669e-02  -4.0965063098891211e-02  -3.0775603246123915e-02  -2.0287991263022324e-02  -9.9007156763991373e-03  3.6221783665506104e-14  9.0548959940381923e-03  1.6945261546850162e-02  2.3404887391600859e-02  2.8229929507255204e-02  3.1286309086964059e-02  3.2514368879423057e-02  3.1930611967052033e-02  2.9626461559496074e-02  2.5764095173962671e-02  2.0569519224694306e-02  1.4323156211680082e-02  7.3483122552243322e-03  0.0000000000000000e+00  0.0000000000000000e+00  -1.3809629416479230e-02  -2.7202097944373380e-02  -3.9768587942738416e-02  -5.1134110279917169e-02  -6.0966523586390237e-02  -6.8988299934710257e-02  -7.4986234961313208e-02  -7.8818738025876689e-02  -8.0420430739235355e-02  -7.9803885243329320e-02  -7.7058442959374571e-02  -7.2346165965871595e-02  -6.5895082483014872e-02  -5.7989990960427382e-02  -4.8961180063028388e-02  -3.9171500884419529e-02  -2.9002289971719580e-02  -1.8838684844767063e-02  -9.0548959939645395e-03  3.7344432085895920e-14  8.0152025796720022e-03  1.4729762750049630e-02  1.9942151300013634e-02  2.3517456890345505e-02  2.5391942990692681e-02  2.5574794772046047e-02  2.4146995582904569e-02  2.1257383375116588e-02  1.7116046134696975e-02  1.1985317827071164e-02  6.1687286118264767e-03  0.0000000000000000e+00  0.0000000000000000e+00  -1.4023284075068615e-02  -2.7642114320790001e-02  -4.0457861990941313e-02  -5.2104615960120754e-02  -6.2257532760273918e-02  -7.0644153082651012e-02  -7.7053753743755116e-02  -8.1344386130966936e-02  -8.3447340861036917e-02  -8.3368876864493860e-02  -8.1189157529730202e-02  -7.7058442959371296e-02  -7.1190691781526094e-02  -6.3854824357055612e-02  -5.5363987886097872e-02  -4.6063239462469215e-02  -3.6316122670684015e-02  -2.6490654595557869e-02  -1.6945261546776454e-02  -8.0152025795974195e-03  3.7166186732503880e-14  6.8476437464949757e-03  1.2331021546750113e-02  1.6316342454444095e-02  1.8737138387549916e-02  1.9595994565273625e-02  1.8963545052809602e-02  1.6974780406489691e-02  1.3822818097422147e-02  9.7503841460018330e-03  5.0393424411914085e-03  0.0000000000000000e+00  0.0000000000000000e+00  -1.3971891065599144e-02  -2.7557218676178087e-02  -4.0372629167275999e-02  -5.2066004028370846e-02  -6.2324086715701346e-02  -7.0883230590202129e-02  -7.7538291749945198e-02  -8.2149336925841573e-02  -8.4645920448176162e-02  -8.5028777194274804e-02  -8.3368876864491057e-02  -7.9803885243323297e-02  -7.4532176517508847e-02  -6.7804633518652166e-02  -5.9914556404645790e-02  -5.1186071601309197e-02  -4.1961489070373094e-02  -3.2588095004930380e-02  -2.3404887391528326e-02  -1.4729762749976378e-02  -6.8476437464220878e-03  3.5684095027344387e-14  5.6238402832390934e-03  9.8932600975015703e-03  1.2740559477139892e-02  1.4162643718374241e-02  1.4220137794950908e-02  1.3033970281113827e-02  1.0779567783188823e-02  7.6788929914915188e-03  3.9906424417637462e-03  0.0000000000000000e+00  0.0000000000000000e+00  -1.3641824338083237e-02  -2.6920076152753776e-02  -3.9471751154645768e-02  -5.0963234949551073e-02  -6.1097164705303832e-02  -6.9622492993204999e-02  -7.6342823070320531e-02  -8.1122708700237425e-02  -8.3891689668574701e-02  -8.4645920448173859e-02  -8.3447340861031866e-02  -8.0420430739227194e-02  -7.5746682028799306e-02  -6.9657008047634528e-02  -6.2422387411741075e-02  -5.4343106508004294e-02  -4.5737016775274933e-02  -3.6927259455828101e-02  -2.8229929507185125e-02  -1.9942151299942975e-02  -1.2331021546679904e-02  -5.6238402831704330e-03  3.2990777965700346e-14  4.4151618368659558e-03  7.5543181252099760e-03  9.4097717378747898e-03  1.0032686363108292e-02  9.5299679675124090e-03  8.0589270293174309e-03  5.8199372658710230e-03  3.0473836752835846e-03  0.0000000000000000e+00  0.0000000000000000e+00  -1.3027710085166955e-02  -2.5719749954028447e-02  -3.7738421888554842e-02  -4.8773226285951460e-02  -5.8546927417011167e-02  -6.6824822639675999e-02  -7.3422425249398168e-02  -7.8211280891857374e-02  -8.1122708700235635e-02  -8.2149336925837549e-02  -8.1344386130960275e-02  -7.8818738025867072e-02  -7.4735911575998626e-02  -6.9305146892859201e-02  -6.2772868620535022e-02  -5.5412861299443832e-02  -4.7515537193327642e-02  -3.9376710463233461e-02  -3.1286309086897716e-02  -2.3517456890278707e-02  -1.6316342454377807e-02  -9.8932600974368148e-03  -4.4151618368037842e-03  2.9266975177853424e-14  3.2869297274682797e-03  