<?xml version="1.0"?>
<VTKFile type="UnstructuredGrid"  version="0.1"  >
<UnstructuredGrid>
<Piece  NumberOfPoints="1089" NumberOfCells="2048">
<Points>
<DataArray  type="Float64"  NumberOfComponents="3"  format="ascii">0 0 0  0.03125 0 0  0.0625 0 0  0.09375 0 0  0.125 0 0  0.15625 0 0  0.1875 0 0  0.21875 0 0  0.25 0 0  0.28125 0 0  0.3125 0 0  0.34375 0 0  0.375 0 0  0.40625 0 0  0.4375 0 0  0.46875 0 0  0.5 0 0  0.53125 0 0  0.5625 0 0  0.59375 0 0  0.625 0 0  0.65625 0 0  0.6875 0 0  0.71875 0 0  0.75 0 0  0.78125 0 0  0.8125 0 0  0.84375 0 0  0.875 0 0  0.90625 0 0  0.9375 0 0  0.96875 0 0  1 0 0  0 0.03125 0  0.03125 0.03125 0  0.0625 0.03125 0  0.09375 0.03125 0  0.125 0.03125 0  0.15625 0.03125 0  0.1875 0.03125 0  0.21875 0.03125 0  0.25 0.03125 0  0.28125 0.03125 0  0.3125 0.03125 0  0.34375 0.03125 0  0.375 0.03125 0  0.40625 0.03125 0  0.4375 0.03125 0  0.46875 0.03125 0  0.5 0.03125 0  0.53125 0.03125 0  0.5625 0.03125 0  0.59375 0.03125 0  0.625 0.03125 0  0.65625 0.03125 0  0.6875 0.03125 0  0.71875 0.03125 0  0.75 0.03125 0  0.78125 0.03125 0  0.8125 0.03125 0  0.84375 0.03125 0  0.875 0.03125 0  0.90625 0.03125 0  0.9375 0.03125 0  0.96875 0.03125 0  1 0.03125 0  0 0.0625 0  0.03125 0.0625 0  0.0625 0.0625 0  0.09375 0.0625 0  0.125 0.0625 0  0.15625 0.0625 0  0.1875 0.0625 0  0.21875 0.0625 0  0.25 0.0625 0  0.28125 0.0625 0  0.3125 0.0625 0  0.34375 0.0625 0  0.375 0.0625 0  0.40625 0.0625 0  0.4375 0.0625 0  0.46875 0.0625 0  0.5 0.0625 0  0.53125 0.0625 0  0.5625 0.0625 0  0.59375 0.0625 0  0.625 0.0625 0  0.65625 0.0625 0  0.6875 0.0625 0  0.71875 0.0625 0  0.75 0.0625 0  0.78125 0.0625 0  0.8125 0.0625 0  0.84375 0.0625 0  0.875 0.0625 0  0.90625 0.0625 0  0.9375 0.0625 0  0.96875 0.0625 0  1 0.0625 0  0 0.09375 0  0.03125 0.09375 0  0.0625 0.09375 0  0.09375 0.09375 0  0.125 0.09375 0  0.15625 0.09375 0  0.1875 0.09375 0  0.21875 0.09375 0  0.25 0.09375 0  0.28125 0.09375 0  0.3125 0.09375 0  0.34375 0.09375 0  0.375 0.09375 0  0.40625 0.09375 0  0.4375 0.09375 0  0.46875 0.09375 0  0.5 0.09375 0  0.53125 0.09375 0  0.5625 0.09375 0  0.59375 0.09375 0  0.625 0.09375 0  0.65625 0.09375 0  0.6875 0.09375 0  0.71875 0.09375 0  0.75 0.09375 0  0.78125 0.09375 0  0.8125 0.09375 0  0.84375 0.09375 0  0.875 0.09375 0  0.90625 0.09375 0  0.9375 0.09375 0  0.96875 0.09375 0  1 0.09375 0  0 0.125 0  0.03125 0.125 0  0.0625 0.125 0  0.09375 0.125 0  0.125 0.125 0  0.15625 0.125 0  0.1875 0.125 0  0.21875 0.125 0  0.25 0.125 0  0.28125 0.125 0  0.3125 0.125 0  0.34375 0.125 0  0.375 0.125 0  0.40625 0.125 0  0.4375 0.125 0  0.46875 0.125 0  0.5 0.125 0  0.53125 0.125 0  0.5625 0.125 0  0.59375 0.125 0  0.625 0.125 0  0.65625 0.125 0  0.6875 0.125 0  0.71875 0.125 0  0.75 0.125 0  0.78125 0.125 0  0.8125 0.125 0  0.84375 0.125 0  0.875 0.125 0  0.90625 0.125 0  0.9375 0.125 0  0.96875 0.125 0  1 0.125 0  0 0.15625 0  0.03125 0.15625 0  0.0625 0.15625 0  0.09375 0.15625 0  0.125 0.15625 0  0.15625 0.15625 0  0.1875 0.15625 0  0.21875 0.15625 0  0.25 0.15625 0  0.28125 0.15625 0  0.3125 0.15625 0  0.34375 0.15625 0  0.375 0.15625 0  0.40625 0.15625 0  0.4375 0.15625 0  0.46875 0.15625 0  0.5 0.15625 0  0.53125 0.15625 0  0.5625 0.15625 0  0.59375 0.15625 0  0.625 0.15625 0  0.65625 0.15625 0  0.6875 0.15625 0  0.71875 0.15625 0  0.75 0.15625 0  0.78125 0.15625 0  0.8125 0.15625 0  0.84375 0.15625 0  0.875 0.15625 0  0.90625 0.15625 0  0.9375 0.15625 0  0.96875 0.15625 0  1 0.15625 0  0 0.1875 0  0.03125 0.1875 0  0.0625 0.1875 0  0.09375 0.1875 0  0.125 0.1875 0  0.15625 0.1875 0  0.1875 0.1875 0  0.21875 0.1875 0  0.25 0.1875 0  0.28125 0.1875 0  0.3125 0.1875 0  0.34375 0.1875 0  0.375 0.1875 0  0.40625 0.1875 0  0.4375 0.1875 0  0.46875 0.1875 0  0.5 0.1875 0  0.53125 0.1875 0  0.5625 0.1875 0  0.59375 0.1875 0  0.625 0.1875 0  0.65625 0.1875 0  0.6875 0.1875 0  0.71875 0.1875 0  0.75 0.1875 0  0.78125 0.1875 0  0.8125 0.1875 0  0.84375 0.1875 0  0.875 0.1875 0  0.90625 0.1875 0  0.9375 0.1875 0  0.96875 0.1875 0  1 0.1875 0  0 0.21875 0  0.03125 0.21875 0  0.0625 0.21875 0  0.09375 0.21875 0  0.125 0.21875 0  0.15625 0.21875 0  0.1875 0.21875 0  0.21875 0.21875 0  0.25 0.21875 0  0.28125 0.21875 0  0.3125 0.21875 0  0.34375 0.21875 0  0.375 0.21875 0  0.40625 0.21875 0  0.4375 0.21875 0  0.46875 0.21875 0  0.5 0.21875 0  0.53125 0.21875 0  0.5625 0.21875 0  0.59375 0.21875 0  0.625 0.21875 0  0.65625 0.21875 0  0.6875 0.21875 0  0.71875 0.21875 0  0.75 0.21875 0  0.78125 0.21875 0  0.8125 0.21875 0  0.84375 0.21875 0  0.875 0.21875 0  0.90625 0.21875 0  0.9375 0.21875 0  0.96875 0.21875 0  1 0.21875 0  0 0.25 0  0.03125 0.25 0  0.0625 0.25 0  0.09375 0.25 0  0.125 0.25 0  0.15625 0.25 0  0.1875 0.25 0  0.21875 0.25 0  0.25 0.25 0  0.28125 0.25 0  0.3125 0.25 0  0.34375 0.25 0  0.375 0.25 0  0.40625 0.25 0  0.4375 0.25 0  0.46875 0.25 0  0.5 0.25 0  0.53125 0.25 0  0.5625 0.25 0  0.59375 0.25 0  0.625 0.25 0  0.65625 0.25 0  0.6875 0.25 0  0.71875 0.25 0  0.75 0.25 0  0.78125 0.25 0  0.8125 0.25 0  0.84375 0.25 0  0.875 0.25 0  0.90625 0.25 0  0.9375 0.25 0  0.96875 0.25 0  1 0.25 0  0 0.28125 0  0.03125 0.28125 0  0.0625 0.28125 0  0.09375 0.28125 0  0.125 0.28125 0  0.15625 0.28125 0  0.1875 0.28125 0  0.21875 0.28125 0  0.25 0.28125 0  0.28125 0.28125 0  0.3125 0.28125 0  0.34375 0.28125 0  0.375 0.28125 0  0.40625 0.28125 0  0.4375 0.28125 0  0.46875 0.28125 0  0.5 0.28125 0  0.53125 0.28125 0  0.5625 0.28125 0  0.59375 0.28125 0  0.625 0.28125 0  0.65625 0.28125 0  0.6875 0.28125 0  0.71875 0.28125 0  0.75 0.28125 0  0.78125 0.28125 0  0.8125 0.28125 0  0.84375 0.28125 0  0.875 0.28125 0  0.90625 0.28125 0  0.9375 0.28125 0  0.96875 0.28125 0  1 0.28125 0  0 0.3125 0  0.03125 0.3125 0  0.0625 0.3125 0  0.09375 0.3125 0  0.125 0.3125 0  0.15625 0.3125 0  0.1875 0.3125 0  0.21875 0.3125 0  0.25 0.3125 0  0.28125 0.3125 0  0.3125 0.3125 0  0.34375 0.3125 0  0.375 0.3125 0  0.40625 0.3125 0  0.4375 0.3125 0  0.46875 0.3125 0  0.5 0.3125 0  0.53125 0.3125 0  0.5625 0.3125 0  0.59375 0.3125 0  0.625 0.3125 0  0.65625 0.3125 0  0.6875 0.3125 0  0.71875 0.3125 0  0.75 0.3125 0  0.78125 0.3125 0  0.8125 0.3125 0  0.84375 0.3125 0  0.875 0.3125 0  0.90625 0.3125 0  0.9375 0.3125 0  0.96875 0.3125 0  1 0.3125 0  0 0.34375 0  0.03125 0.34375 0  0.0625 0.34375 0  0.09375 0.34375 0  0.125 0.34375 0  0.15625 0.34375 0  0.1875 0.34375 0  0.21875 0.34375 0  0.25 0.34375 0  0.28125 0.34375 0  0.3125 0.34375 0  0.34375 0.34375 0  0.375 0.34375 0  0.40625 0.34375 0  0.4375 0.34375 0  0.46875 0.34375 0  0.5 0.34375 0  0.53125 0.34375 0  0.5625 0.34375 0  0.59375 0.34375 0  0.625 0.34375 0  0.65625 0.34375 0  0.6875 0.34375 0  0.71875 0.34375 0  0.75 0.34375 0  0.78125 0.34375 0  0.8125 0.34375 0  0.84375 0.34375 0  0.875 0.34375 0  0.90625 0.34375 0  0.9375 0.34375 0  0.96875 0.34375 0  1 0.34375 0  0 0.375 0  0.03125 0.375 0  0.0625 0.375 0  0.09375 0.375 0  0.125 0.375 0  0.15625 0.375 0  0.1875 0.375 0  0.21875 0.375 0  0.25 0.375 0  0.28125 0.375 0  0.3125 0.375 0  0.34375 0.375 0  0.375 0.375 0  0.40625 0.375 0  0.4375 0.375 0  0.46875 0.375 0  0.5 0.375 0  0.53125 0.375 0  0.5625 0.375 0  0.59375 0.375 0  0.625 0.375 0  0.65625 0.375 0  0.6875 0.375 0  0.71875 0.375 0  0.75 0.375 0  0.78125 0.375 0  0.8125 0.375 0  0.84375 0.375 0  0.875 0.375 0  0.90625 0.375 0  0.9375 0.375 0  0.96875 0.375 0  1 0.375 0  0 0.40625 0  0.03125 0.40625 0  0.0625 0.40625 0  0.09375 0.40625 0  0.125 0.40625 0  0.15625 0.40625 0  0.1875 0.40625 0  0.21875 0.40625 0  0.25 0.40625 0  0.28125 0.40625 0  0.3125 0.40625 0  0.34375 0.40625 0  0.375 0.40625 0  0.40625 0.40625 0  0.4375 0.40625 0  0.46875 0.40625 0  0.5 0.40625 0  0.53125 0.40625 0  0.5625 0.40625 0  0.59375 0.40625 0  0.625 0.40625 0  0.65625 0.40625 0  0.6875 0.40625 0  0.71875 0.40625 0  0.75 0.40625 0  0.78125 0.40625 0  0.8125 0.40625 0  0.84375 0.40625 0  0.875 0.40625 0  0.90625 0.40625 0  0.9375 0.40625 0  0.96875 0.40625 0  1 0.40625 0  0 0.4375 0  0.03125 0.4375 0  0.0625 0.4375 0  0.09375 0.4375 0  0.125 0.4375 0  0.15625 0.4375 0  0.1875 0.4375 0  0.21875 0.4375 0  0.25 0.4375 0  0.28125 0.4375 0  0.3125 0.4375 0  0.34375 0.4375 0  0.375 0.4375 0  0.40625 0.4375 0  0.4375 0.4375 0  0.46875 0.4375 0  0.5 0.4375 0  0.53125 0.4375 0  0.5625 0.4375 0  0.59375 0.4375 0  0.625 0.4375 0  0.65625 0.4375 0  0.6875 0.4375 0  0.71875 0.4375 0  0.75 0.4375 0  0.78125 0.4375 0  0.8125 0.4375 0  0.84375 0.4375 0  0.875 0.4375 0  0.90625 0.4375 0  0.9375 0.4375 0  0.96875 0.4375 0  1 0.4375 0  0 0.46875 0  0.03125 0.46875 0  0.0625 0.46875 0  0.09375 0.46875 0  0.125 0.46875 0  0.15625 0.46875 0  0.1875 0.46875 0  0.21875 0.46875 0  0.25 0.46875 0  0.28125 0.46875 0  0.3125 0.46875 0  0.34375 0.46875 0  0.375 0.46875 0  0.40625 0.46875 0  0.4375 0.46875 0  0.46875 0.46875 0  0.5 0.46875 0  0.53125 0.46875 0  0.5625 0.46875 0  0.59375 0.46875 0  0.625 0.46875 0  0.65625 0.46875 0  0.6875 0.46875 0  0.71875 0.46875 0  0.75 0.46875 0  0.78125 0.46875 0  0.8125 0.46875 0  0.84375 0.46875 0  0.875 0.46875 0  0.90625 0.46875 0  0.9375 0.46875 0  0.96875 0.46875 0  1 0.46875 0  0 0.5 0  0.03125 0.5 0  0.0625 0.5 0  0.09375 0.5 0  0.125 0.5 0  0.15625 0.5 0  0.1875 0.5 0  0.21875 0.5 0  0.25 0.5 0  0.28125 0.5 0  0.3125 0.5 0  0.34375 0.5 0  0.375 0.5 0  0.40625 0.5 0  0.4375 0.5 0  0.46875 0.5 0  0.5 0.5 0  0.53125 0.5 0  0.5625 0.5 0  0.59375 0.5 0  0.625 0.5 0  0.65625 0.5 0  0.6875 0.5 0  0.71875 0.5 0  0.75 0.5 0  0.78125 0.5 0  0.8125 0.5 0  0.84375 0.5 0  0.875 0.5 0  0.90625 0.5 0  0.9375 0.5 0  0.96875 0.5 0  1 0.5 0  0 0.53125 0  0.03125 0.53125 0  0.0625 0.53125 0  0.09375 0.53125 0  0.125 0.53125 0  0.15625 0.53125 0  0.1875 0.53125 0  0.21875 0.53125 0  0.25 0.53125 0  0.28125 0.53125 0  0.3125 0.53125 0  0.34375 0.53125 0  0.375 0.53125 0  0.40625 0.53125 0  0.4375 0.53125 0  0.46875 0.53125 0  0.5 0.53125 0  0.53125 0.53125 0  0.5625 0.53125 0  0.59375 0.53125 0  0.625 0.53125 0  0.65625 0.53125 0  0.6875 0.53125 0  0.71875 0.53125 0  0.75 0.53125 0  0.78125 0.531
[...]
<PointData  Scalars="phi"> 
<DataArray  type="Float64"  Name="phi"  format="ascii">0.0000000000000000e+00  0.0000000000000000e+00  0.0000000000000000e+00  0.0000000000000000e+00  0.0000000000000000e+00  0.0000000000000000e+00  0.0000000000000000e+00  0.0000000000000000e+00  0.0000000000000000e+00  0.0000000000000000e+00  0.0000000000000000e+00  0.0000000000000000e+00  0.0000000000000000e+00  0.0000000000000000e+00  0.0000000000000000e+00  0.0000000000000000e+00  0.0000000000000000e+00  0.0000000000000000e+00  0.0000000000000000e+00  0.0000000000000000e+00  0.0000000000000000e+00  0.0000000000000000e+00  0.0000000000000000e+00  0.0000000000000000e+00  0.0000000000000000e+00  0.0000000000000000e+00  0.0000000000000000e+00  0.0000000000000000e+00  0.0000000000000000e+00  0.0000000000000000e+00  0.0000000000000000e+00  0.0000000000000000e+00  0.0000000000000000e+00  0.0000000000000000e+00  -1.9656083455643829e-19  1.4804630923248732e-09  5.8333845509159232e-09  1.4305667445029528e-08  2.7939990918717456e-08  4.7522964914969142e-08  7.3543202841084834e-08  1.0616125042102119e-07  1.4519273398712490e-07  1.9010552975334394e-07  2.4003118766114397e-07  2.9379027636560778e-07  3.4993076589124302e-07  4.0677805015241068e-07  4.6249475159673152e-07  5.1514806189943380e-07  5.6278207066918240e-07  6.0349233013283197e-07  6.3549980572096811e-07  6.5722137440843988e-07  6.6733415455575427e-07  6.6483117890300784e-07  6.4906624883543772e-07  6.1978622299037535e-07  5.7714948578075123e-07  5.2172990355850596e-07  4.5450621253606675e-07  3.7683753665925923e-07  2.9042676859973280e-07  1.9727541818043875e-07  9.9638175610815967e-08  0.0000000000000000e+00  0.0000000000000000e+00  -1.4804630931060210e-09  -7.7630941068013494e-19  7.2220234884554614e-09  2.2680074459671002e-08  4.8463134056243767e-08  8.6150794590677601e-08  1.3672939223276089e-07  2.0053184501144654e-07  2.7720384827146813e-07  3.6569800287059810e-07  4.6429633565543631e-07  5.7066054880966220e-07  6.8190824207583351e-07  7.9471232882263006e-07  9.0541995142739927e-07  1.0101864280401680e-06  1.1051191610118781e-06  1.1864260302917082e-06  1.2505625988245747e-06  1.2943724794158951e-06  1.3152154535501059e-06  1.3110783841629414e-06  1.2806646109738283e-06  1.2234583372577909e-06  1.1397614856907548e-06  1.0307015932028300e-06  8.9821051331335174e-07  7.4497500317731938e-07  5.7436173875981256e-07  3.9032102511668321e-07  1.9727541818043930e-07  0.0000000000000000e+00  0.0000000000000000e+00  -5.8333845520759927e-09  -7.2220234907616095e-09  -1.7128871183723029e-18  1.9575642961384239e-08  5.4645611333818302e-08  1.0759269464881149e-07  1.7991622763103019e-07  2.7214197405152688e-07  3.8377130952425541e-07  5.1327201971071894e-07  6.5811138890341814e-07  8.1483059144554814e-07  9.7915777635297263e-07  1.1461557145864138e-06  1.3103985162438897e-06  1.4661707734559140e-06  1.6076815881495310e-06  1.7292853367251526e-06  1.8257007297599988e-06  1.8922197559814662e-06  1.9248984555788026e-06  1.9207221359784374e-06  1.8777385996310044e-06  1.7951541641668004e-06  1.6733886782652138e-06  1.5140873236704364e-06  1.3200886930498407e-06  1.0953503875467492e-06  8.4483510726990623e-07  5.7436173875981541e-07  2.9042676859973508e-07  0.0000000000000000e+00  0.0000000000000000e+00  -1.4305667446555387e-08  -2.2680074462704641e-08  -1.9575642965891047e-08  -2.9646631831794106e-18  4.0245938874115650e-08  1.0436144144271400e-07  1.9437939420600587e-07  3.1104658404865370e-07  4.5375588626926565e-07  6.2053339068126503e-07  8.0808134898972638e-07  1.0118756429581134e-06  1.2263143382447717e-06  1.4449118851025913e-06  1.6605317312518513e-06  1.8656485931639246e-06  2.0526304482622956e-06  2.2140295079519518e-06  2.3428710412218251e-06  2.4329289564218025e-06  2.4789775140117723e-06  2.4770094187119005e-06  2.4244117931093845e-06  2.3200931196424848e-06  2.1645560944769860e-06  1.9599133942101689e-06  1.7098455321577335e-06  1.4195021765498084e-06  1.0953503875467571e-06  7.4497500317732828e-07  3.7683753665926479e-07  0.0000000000000000e+00  0.0000000000000000e+00  -2.7939990920592072e-08  -4.8463134059971056e-08  -5.4645611339355939e-08  -4.0245938881401510e-08  -4.4765327379935291e-18  7.0123000116107887e-08  1.7271397341303272e-07  3.0877522097214349e-07  4.7763574809435456e-07  6.7693434764298505e-07  9.0267153996373264e-07  1.1493287733701647e-06  1.4100506624456560e-06  1.6768835739811788e-06  1.9410616575318927e-06  2.1933295447372798e-06  2.4242894810595961e-06  2.6247596620143333e-06  2.7861300619073709e-06  2.9007020857390861e-06  2.9619989432876442e-06  2.9650347172613986e-06  2.9065316341616662e-06  2.7850769883108139e-06  2.6012134410863784e-06  2.3574589286010342e-06  2.0582550576373425e-06  1.7098455321577496e-06  1.3200886930498623e-06  8.9821051331337080e-07  4.5450621253607771e-07  0.0000000000000000e+00  0.0000000000000000e+00  -4.7522964917171798e-08  -8.6150794595057370e-08  -1.0759269465531881e-07  -1.0436144145127600e-07  -7.0123000126629399e-08  -6.1825213551409623e-18  1.0918310479011686e-07  2.5872313726519117e-07  4.4793688218488214e-07  6.7413974946404130e-07  9.3270570859692142e-07  1.2172066255404032e-06  1.5196260388025995e-06  1.8306395031839668e-06  2.1399510202238577e-06  2.4366728648106869e-06  2.7097343930731758e-06  2.9483042443784255e-06  3.1422097756104458e-06  3.2823376115200762e-06  3.3609998595915705e-06  3.3722517964406667e-06  3.3121486370494076e-06  3.1789312784559175e-06  2.9731335768100225e-06  2.6976066651213012e-06  2.3574589286010622e-06  1.9599133942102100e-06  1.5140873236704790e-06  1.0307015932028639e-06  5.2172990355852470e-07  0.0000000000000000e+00  0.0000000000000000e+00  -7.3543202843591430e-08  -1.3672939223774523e-07  -1.7991622763843601e-07  -1.9437939421575030e-07  -1.7271397342500762e-07  -1.0918310480419021e-07  -8.0089421592355813e-18  1.5646807556533682e-07  3.5958223245659125e-07  6.0640583696782929e-07  8.9177133622292623e-07  1.2084379144215156e-06  1.5473343319739866e-06  1.8978779768010971e-06  2.2483581751019285e-06  2.5863692826453359e-06  2.8992771048260544e-06  3.1747008507384262e-06  3.4009921655200172e-06  3.5676928321247370e-06  3.6659534871481178e-06  3.6888971267003128e-06  3.6319132326395523e-06  3.4928709473636027e-06  3.2722427657745898e-06  2.9731335768100661e-06  2.6012134410864470e-06  2.1645560944770631e-06  1.6733886782652849e-06  1.1397614856908088e-06  5.7714948578078024e-07  0.0000000000000000e+00  0.0000000000000000e+00  -1.0616125042380453e-07  -2.0053184501698137e-07  -2.7214197405975088e-07  -3.1104658405947497e-07  -3.0877522098544190e-07  -2.5872313728082025e-07  -1.5646807558312557e-07  -9.8777975849065063e-18  2.1014559776974236e-07  4.7085646438832157e-07  7.7651611751760332e-07  1.1191778160213732e-06  1.4888336967164095e-06  1.8737691011045942e-06  2.2609887883411819e-06  2.6366989108934217e-06  2.9868264258085475e-06  3.2975561125100634e-06  3.5558646258411270e-06  3.7500310596974480e-06  3.8701043306791788e-06  3.9083092809983309e-06  3.8593756844216853e-06  3.7207772303312380e-06  3.4928709473636649e-06  3.1789312784560209e-06  2.7850769883109371e-06  2.3200931196426081e-06  1.7951541641669084e-06  1.2234583372578703e-06  6.1978622299041728e-07  0.0000000000000000e+00  0.0000000000000000e+00  -1.4519273399015508e-07  -2.7720384827749403e-07  -3.8377130953320929e-07  -4.5375588628104756e-07  -4.7763574810883374e-07  -4.4793688220189914e-07  -3.5958223247595993e-07  -2.1014559779125260e-07  -1.1710403736638092e-17  2.6764569033083236e-07  5.8682376004117686e-07  9.4899577792011958e-07  1.3433450133149150e-06  1.7571622689814533e-06  2.1763106072805139e-06  2.5857513612972882e-06  2.9701114082247175e-06  3.3142700346072897e-06  3.6039429056421205e-06  3.8262406955785386e-06  3.9701808420655174e-06  4.0271326196307607e-06  3.9911782200370096e-06  3.8593756844217692e-06  3.6319132326396958e-06  3.3121486370495863e-06  2.9065316341618564e-06  2.4244117931095649e-06  1.8777385996311570e-06  1.2806646109739382e-06  6.4906624883549532e-07  0.0000000000000000e+00  0.0000000000000000e+00  -1.9010552975658887e-07  -3.6569800287705111e-07  -5.1327201972030767e-07  -6.2053339069388254e-07  -6.7693434765849125e-07  -6.7413974948226542e-07  -6.0640583698857197e-07  -4.7085646441135790e-07  -2.6764569035591475e-07  -1.3430921834702585e-17  3.2586191641878166e-07  7.0092916548019151e-07  1.1137111270407353e-06  1.5506507345866445e-06  1.9966229662912025e-06  2.4354996275088934e-06  2.8507589024845190e-06  3.2261163743298014e-06  3.5461533265157028e-06  3.7969181807666935e-06  3.9664778941811258e-06  4.0453979958871805e-06  4.0271326196308682e-06  3.9083092809985190e-06  3.6888971267005550e-06  3.3722517964409356e-06  2.9650347172616688e-06  2.4770094187121479e-06  1.9207221359786416e-06  1.3110783841630868e-06  6.6483117890308322e-07  0.0000000000000000e+00  0.0000000000000000e+00  -2.4003118766456953e-07  -4.6429633566224867e-07  -6.5811138891354093e-07  -8.0808134900304682e-07  -9.0267153998010293e-07  -9.3270570861616135e-07  -8.9177133624482521e-07  -7.7651611754192365e-07  -5.8682376006765733e-07  -3.2586191644714070e-07  -1.4969699246060588e-17  3.8140033518438844e-07  8.0631434142811549e-07  1.2604906070233781e-06  1.7279782590365893e-06  2.1917248949428756e-06  2.6342224316961940e-06  3.0381761670993727e-06  3.3871714016835504e-06  3.6663120063949199e-06  3.8628063412624622e-06  3.9664778941812571e-06  3.9701808420657521e-06  3.8701043306794888e-06  3.6659534871484744e-06  3.3609998595919432e-06  2.9619989432880046e-06  2.4789775140120946e-06  1.9248984555790647e-06  1.3152154535502906e-06  6.6733415455584977e-07  0.0000000000000000e+00  0.0000000000000000e+00  -2.9379027636917844e-07  -5.7066054881676330e-07  -8.1483059145610016e-07  -1.0118756429719988e-06  -1.1493287733872296e-06  -1.2172066255604592e-06  -1.2084379144443436e-06  -1.1191778160467253e-06  -9.4899577794772343e-07  -7.0092916550975327e-07  -3.8140033521559748e-07  -1.6266092106149633e-17  4.3085508151381398e-07  8.9637719869555485e-07  1.3799583018800600e-06  1.8637951628974188e-06  2.3295652043422577e-06  2.7591271280648164e-06  3.1352194739346863e-06  3.4421302712600123e-06  3.6663120063950728e-06  3.7969181807669743e-06  3.8262406955789189e-06  3.7500310596978956e-06  3.5676928321252203e-06  3.2823376115205628e-06  2.9007020857395452e-06  2.4329289564222066e-06  1.8922197559817913e-06  1.2943724794161226e-06  6.5722137440855688e-07  0.0000000000000000e+00  0.0000000000000000e+00  -3.4993076589492232e-07  -6.8190824208315071e-07  -9.7915777636384599e-07  -1.2263143382590800e-06  -1.4100506624632404e-06  -1.5196260388232665e-06  -1.5473343319975097e-06  -1.4888336967425339e-06  -1.3433450133433595e-06  -1.1137111270711974e-06  -8.0631434146027436e-07  -4.3085508154733583e-07  -1.7270697737714907e-17  4.7108715937603460e-07  9.6531409443048796e-07  1.4643061774845532e-06  1.9491056754316006e-06  2.4008971731760753e-06  2.8017313738924962e-06  3.1352194739348591e-06  3.3871714016838735e-06  3.5461533265161488e-06  3.6039429056426583e-06  3.5558646258417229e-06  3.4009921655206360e-06  3.1422097756110535e-06  2.7861300619079350e-06  2.3428710412223152e-06  1.8257007297603897e-06  1.2505625988248468e-06  6.3549980572110755e-07  0.0000000000000000e+00  0.0000000000000000e+00  -4.0677805015616150e-07  -7.9471232883008956e-07  -1.1461557145974987e-06  -1.4449118851171781e-06  -1.6768835739991057e-06  -1.8306395032050361e-06  -1.8978779768250785e-06  -1.8737691011312272e-06  -1.7571622690104512e-06  -1.5506507346176988e-06  -1.2604906070561621e-06  -8.9637719872972797e-07  -4.7108715941124655e-07  -1.7947499709044242e-17  4.9948273804969468e-07  1.0085984600080727e-06  1.5079393326181968e-06  1.9781954983906994e-06  2.4008971731762641e-06  2.7591271280651759e-06  3.0381761670998779e-06  3.2261163743304227e-06  3.3142700346079932e-06  3.2975561125108134e-06  3.1747008507391859e-06  2.9483042443791577e-06  2.6247596620150042e-06  2.2140295079525291e-06  1.7292853367256106e-06  1.1864260302920254e-06  6.0349233013299417e-07  0.0000000000000000e+00  0.0000000000000000e+00  -4.6249475160051654e-07  -9.0541995143492696e-07  -1.3103985162550760e-06  -1.6605317312665717e-06  -1.9410616575499836e-06  -2.1399510202451199e-06  -2.2483581751261299e-06  -2.2609887883680583e-06  -2.1763106073097772e-06  -1.9966229663225406e-06  -1.7279782590696727e-06  -1.3799583019145446e-06  -9.6531409446602014e-07  -4.9948273808591561e-07  -1.8274516545904033e-17  5.1416897170898921e-07  1.0233551234590073e-06  1.5079393326183971e-06  1.9491056754319877e-06  2.3295652043428108e-06  2.6342224316968869e-06  2.8507589024853190e-06  2.9701114082255891e-06  2.9868264258094530e-06  2.8992771048269548e-06  2.7097343930740322e-06  2.4242894810603724e-06  2.0526304482629596e-06  1.6076815881500548e-06  1.1051191610122398e-06  5.6278207066936705e-07  0.0000000000000000e+00  0.0000000000000000e+00  -5.1514806190321602e-07  -1.0101864280476903e-06  -1.4661707734670923e-06  -1.8656485931786345e-06  -2.1933295447553580e-06  -2.4366728648319343e-06  -2.5863692826695199e-06  -2.6366989109202794e-06  -2.5857513613265307e-06  -2.4354996275402086e-06  -2.1917248949759340e-06  -1.8637951629318771e-06  -1.4643061775200579e-06  -1.0085984600442648e-06  -5.1416897174550840e-07  -1.8244409687545575e-17  5.1416897170919525e-07  1.0085984600084772e-06  1.4643061774851404e-06  1.8637951628981661e-06  2.1917248949437540e-06  2.4354996275098692e-06  2.5857513612983245e-06  2.6366989108944780e-06  2.5863692826463718e-06  2.4366728648116627e-06  2.1933295447381577e-06  1.8656485931646714e-06  1.4661707734565006e-06  1.0101864280405720e-06  5.1514806189963963e-07  0.0000000000000000e+00  0.0000000000000000e+00  -5.6278207067292544e-07  -1.1051191610193225e-06  -1.6076815881605938e-06  -2.0526304482768535e-06  -2.4242894810774875e-06  -2.7097343930942038e-06  -2.8992771048499885e-06  -2.9868264258351274e-06  -2.9701114082536568e-06  -2.8507589025155098e-06  -2.6342224317289098e-06  -2.3295652043763580e-06  -1.9491056754667355e-06  -1.5079393326540115e-06  -1.0233551234951451e-06  -5.1416897174530226e-07  -1.7864165430123538e-17  4.9948273805029936e-07  9.6531409443126956e-07  1.3799583018809943e-06  1.7279782590376456e-06  1.9966229662923451e-06  2.1763106072817044e-06  2.2609887883423788e-06  2.2483581751030906e-06  2.1399510202249432e-06  1.9410616575328638e-06  1.6605317312526736e-06  1.3103985162445334e-06  9.0541995142784174e-07  4.6249475159695672e-07  0.0000000000000000e+00  0.0000000000000000e+00  -6.0349233013650036e-07  -1.1864260302990043e-06  -1.7292853367359953e-06  -2.2140295079662197e-06  -2.6247596620318690e-06  -2.9483042443990346e-06  -3.1747008507618839e-06  -3.2975561125361139e-06  -3.3142700346356522e-06  -3.2261163743601747e-06  -3.0381761671314358e-06  -2.7591271280982360e-06  -2.4008971732105080e-06  -1.9781954984257975e-06  -1.5079393326538111e-06  -1.0085984600438605e-06  -4.9948273808531094e-07  -1.7154221377990710e-17  4.7108715937699751e-07  8.9637719869666150e-07  1.2604906070245965e-06  1.5506507345879383e-06  1.7571622689827825e-06  1.8737691011059166e-06  1.8978779768023702e-06  1.8306395031851491e-06  1.6768835739822313e-06  1.4449118851034790e-06  1.1461557145871071e-06  7.9471232882310556e-07  4.0677805015265245e-07  0.0000000000000000e+00  0.0000000000000000e+00  -6.3549980572452776e-07  -1.2505625988316546e-06  -1.8257007297705202e-06  -2.3428710412356708e-06  -2.7861300619243874e-06  -3.1422097756304447e-06  -3.4009921655427795e-06  -3.5558646258664059e-06  -3.6039429056696427e-06  -3.5461533265451749e-06  -3.3871714017146623e-06  -3.1352194739671141e-06  -2.8017313739259065e-06  -2.4008971732103191e-06  -1.9491056754663484e-06  -1.4643061775194709e-06  -9.6531409446523854e-07  -4.7108715941028363e-07  -1.6146927940577148e-17  4.3085508151507177e-07  8.0631434142947445e-07  1.1137111270421584e-06  1.3433450133163611e-06  1.4888336967178366e-06  1.5473343319753514e-06  1.5196260388038603e-06  1.4100506624467741e-06  1.2263143382457119e-06  9.7915777635370531e-07  6.8190824207633527e-07  3.4993076589149792e-07  0.0000000000000000e+00  0.0000000000000000e+00  -6.5722137441185819e-07  -1.2943724794226941e-06  -1.8922197559915699e-06  -2.4329289564350988e-06  -2.9007020857554270e-06  -3.2823376115392818e-06  -3.5676928321465964e-06  -3.7500310597217235e-06  -3.8262406956049685e-06  -3.7969181807949958e-06  -3.6663120064247964e-06  -3.4421302712911513e-06  -3.1352194739669413e-06  -2.7591271280978769e-06  -2.3295652043758049e-06  -1.8637951629311301e-06  -1.3799583019136105e-06  -8.9637719872862133e-07  -4.3085508154607804e-07  -1.4884849469601297e-17  3.8140033518585990e-07  7.0092916548171564e-07  9.4899577792165567e-07  1.1191778160228788e-06  1.2084379144229482e-06  1.2172066255417214e-06  1.1493287733713297e-06  1.0118756429590907e-06  8.1483059144630804e-07  5.7066054881018196e-07  2.9379027636587168e-07  0.0000000000000000e+00  0.0000000000000000e+00  -6.6733415455900052e-07  -1.3152154535565624e-06  -1.9248984555883978e-06  -2.4789775140243995e-06  -2.9619989433031631e-06  -3.3609998596098096e-06  -3.6659534871688773e-06  -3.8701043307022325e-06  -3.9701808420906167e-06  -3.9664778942080039e-06  -3.8628063412908344e-06  -3.6663120064246435e-06  -3.3871714017143396e-06  -3.0381761671309310e-06  -2.6342224317282178e-06  -2.1917248949750556e-06  -1.7279782590686165e-06  -1.2604906070549436e-06  -8.0631434145891541e-07  -3.8140033521412602e-07  -1.3418993809628526e-17  3.2586191642037440e-07  5.8682376004277140e-07  7.7651611751915795e-07  8.9177133622439922e-07  9.3270570859827212e-07  9.0267153996492315e-07  8.0808134899072291e-07  6.5811138890419191e-07  4.6429633565596507e-07  2.4003118766141227e-07  0.0000000000000000e+00  0.0000000000000000e+00  -6.6483117890605324e-07  -1.3110783841689987e-06  -1.9207221359874393e-06  -2.4770094187237467e-06  -2.9650347172759579e-06  -3.3722517964577780e-06  -3.6888971267197882e-06  -3.9083092810199591e-06  -4.0271326196543082e-06  -4.0453979959123958e-06  -3.9664778942078734e-06  -3.7969181807947154e-06  -3.5461533265447298e-06  -3.2261163743595539e-06  -2.8507589025147102e-06  -2.4354996275392324e-06  -1.9966229663213975e-06  -1.5506507346164048e-06  -1.1137111270697744e-06  -7.0092916550822925e-07  -3.2586191644554796e-07  -1.1805962429558204e-17  2.6764569033245051e-07  4.7085646438989240e-07  6.0640583696931234e-07  6.7413974946539740e-07  6.7693434764417788e-07  6.2053339068226177e-07  5.1327201971149196e-07  3.6569800287112585e-07  1.9010552975361160e-07  0.0000000000000000e+00  0.0000000000000000e+00  -6.4906624883825580e-07  -1.2806646109794333e-06  -1.8777385996393345e-06  -2.4244117931203464e-06  -2.9065316341751387e-06  -3.3121486370652420e-06  -3.6319132326575746e-06  -3.8593756844416990e-06  -3.9911782200587995e-06  -4.0271326196542015e-06  -3.9701808420903821e-06  -3.8262406956045891e-06  -3.6039429056691056e-06  -3.3142700346349496e-06  -2.9701114082527856e-06  -2.5857513613254948e-06  -2.1763106073085867e-06  -1.7571622690091218e-06  -1.3433450133419134e-06  -9.4899577794618733e-07  -5.8682376006606268e-07  -2.6764569035429660e-07  -1.0106039873692621e-17  2.1014559777129436e-07  3.5958223245805233e-07  4.4793688218621505e-07  4.7763574809552463e-07  4.5375588627024201e-07  3.8377130952501192e-07  2.7720384827198424e-07  1.4519273398738655e-07  0.0000000000000000e+00  0.0000000000000000e+00  -6.1978622299294186e-07  -1.2234583372628959e-06  -1.7951541641743873e-06  -2.3200931196524688e-06  -2.7850769883230852e-06  -3.1789312784703400e-06  -3.4928709473800177e-06  -3.7207772303494674e-06  -3.8593756844416160e-06  -3.9083092810197710e-06  -3.8701043307019225e-06  -3.7500310597212763e-06  -3.5558646258658108e-06  -3.2975561125353647e-06  -2.9868264258342224e-06  -2.6366989109192232e-06  -2.2609887883668614e-06  -1.8737691011299046e-06  -1.4888336967411069e-06  -1.1191778160452195e-06  -7.7651611754036892e-07  -4.7085646440978698e-07  -2.1014559778970060e-07  -8.3807803649227837e-18  1.5646807