<?xml version="1.0"?>
<VTKFile type="UnstructuredGrid"  version="0.1"  >
<UnstructuredGrid>
<Piece  NumberOfPoints="1089" NumberOfCells="2048">
<Points>
<DataArray  type="Float64"  NumberOfComponents="3"  format="ascii">0 0 0  0.03125 0 0  0.0625 0 0  0.09375 0 0  0.125 0 0  0.15625 0 0  0.1875 0 0  0.21875 0 0  0.25 0 0  0.28125 0 0  0.3125 0 0  0.34375 0 0  0.375 0 0  0.40625 0 0  0.4375 0 0  0.46875 0 0  0.5 0 0  0.53125 0 0  0.5625 0 0  0.59375 0 0  0.625 0 0  0.65625 0 0  0.6875 0 0  0.71875 0 0  0.75 0 0  0.78125 0 0  0.8125 0 0  0.84375 0 0  0.875 0 0  0.90625 0 0  0.9375 0 0  0.96875 0 0  1 0 0  0 0.03125 0  0.03125 0.03125 0  0.0625 0.03125 0  0.09375 0.03125 0  0.125 0.03125 0  0.15625 0.03125 0  0.1875 0.03125 0  0.21875 0.03125 0  0.25 0.03125 0  0.28125 0.03125 0  0.3125 0.03125 0  0.34375 0.03125 0  0.375 0.03125 0  0.40625 0.03125 0  0.4375 0.03125 0  0.46875 0.03125 0  0.5 0.03125 0  0.53125 0.03125 0  0.5625 0.03125 0  0.59375 0.03125 0  0.625 0.03125 0  0.65625 0.03125 0  0.6875 0.03125 0  0.71875 0.03125 0  0.75 0.03125 0  0.78125 0.03125 0  0.8125 0.03125 0  0.84375 0.03125 0  0.875 0.03125 0  0.90625 0.03125 0  0.9375 0.03125 0  0.96875 0.03125 0  1 0.03125 0  0 0.0625 0  0.03125 0.0625 0  0.0625 0.0625 0  0.09375 0.0625 0  0.125 0.0625 0  0.15625 0.0625 0  0.1875 0.0625 0  0.21875 0.0625 0  0.25 0.0625 0  0.28125 0.0625 0  0.3125 0.0625 0  0.34375 0.0625 0  0.375 0.0625 0  0.40625 0.0625 0  0.4375 0.0625 0  0.46875 0.0625 0  0.5 0.0625 0  0.53125 0.0625 0  0.5625 0.0625 0  0.59375 0.0625 0  0.625 0.0625 0  0.65625 0.0625 0  0.6875 0.0625 0  0.71875 0.0625 0  0.75 0.0625 0  0.78125 0.0625 0  0.8125 0.0625 0  0.84375 0.0625 0  0.875 0.0625 0  0.90625 0.0625 0  0.9375 0.0625 0  0.96875 0.0625 0  1 0.0625 0  0 0.09375 0  0.03125 0.09375 0  0.0625 0.09375 0  0.09375 0.09375 0  0.125 0.09375 0  0.15625 0.09375 0  0.1875 0.09375 0  0.21875 0.09375 0  0.25 0.09375 0  0.28125 0.09375 0  0.3125 0.09375 0  0.34375 0.09375 0  0.375 0.09375 0  0.40625 0.09375 0  0.4375 0.09375 0  0.46875 0.09375 0  0.5 0.09375 0  0.53125 0.09375 0  0.5625 0.09375 0  0.59375 0.09375 0  0.625 0.09375 0  0.65625 0.09375 0  0.6875 0.09375 0  0.71875 0.09375 0  0.75 0.09375 0  0.78125 0.09375 0  0.8125 0.09375 0  0.84375 0.09375 0  0.875 0.09375 0  0.90625 0.09375 0  0.9375 0.09375 0  0.96875 0.09375 0  1 0.09375 0  0 0.125 0  0.03125 0.125 0  0.0625 0.125 0  0.09375 0.125 0  0.125 0.125 0  0.15625 0.125 0  0.1875 0.125 0  0.21875 0.125 0  0.25 0.125 0  0.28125 0.125 0  0.3125 0.125 0  0.34375 0.125 0  0.375 0.125 0  0.40625 0.125 0  0.4375 0.125 0  0.46875 0.125 0  0.5 0.125 0  0.53125 0.125 0  0.5625 0.125 0  0.59375 0.125 0  0.625 0.125 0  0.65625 0.125 0  0.6875 0.125 0  0.71875 0.125 0  0.75 0.125 0  0.78125 0.125 0  0.8125 0.125 0  0.84375 0.125 0  0.875 0.125 0  0.90625 0.125 0  0.9375 0.125 0  0.96875 0.125 0  1 0.125 0  0 0.15625 0  0.03125 0.15625 0  0.0625 0.15625 0  0.09375 0.15625 0  0.125 0.15625 0  0.15625 0.15625 0  0.1875 0.15625 0  0.21875 0.15625 0  0.25 0.15625 0  0.28125 0.15625 0  0.3125 0.15625 0  0.34375 0.15625 0  0.375 0.15625 0  0.40625 0.15625 0  0.4375 0.15625 0  0.46875 0.15625 0  0.5 0.15625 0  0.53125 0.15625 0  0.5625 0.15625 0  0.59375 0.15625 0  0.625 0.15625 0  0.65625 0.15625 0  0.6875 0.15625 0  0.71875 0.15625 0  0.75 0.15625 0  0.78125 0.15625 0  0.8125 0.15625 0  0.84375 0.15625 0  0.875 0.15625 0  0.90625 0.15625 0  0.9375 0.15625 0  0.96875 0.15625 0  1 0.15625 0  0 0.1875 0  0.03125 0.1875 0  0.0625 0.1875 0  0.09375 0.1875 0  0.125 0.1875 0  0.15625 0.1875 0  0.1875 0.1875 0  0.21875 0.1875 0  0.25 0.1875 0  0.28125 0.1875 0  0.3125 0.1875 0  0.34375 0.1875 0  0.375 0.1875 0  0.40625 0.1875 0  0.4375 0.1875 0  0.46875 0.1875 0  0.5 0.1875 0  0.53125 0.1875 0  0.5625 0.1875 0  0.59375 0.1875 0  0.625 0.1875 0  0.65625 0.1875 0  0.6875 0.1875 0  0.71875 0.1875 0  0.75 0.1875 0  0.78125 0.1875 0  0.8125 0.1875 0  0.84375 0.1875 0  0.875 0.1875 0  0.90625 0.1875 0  0.9375 0.1875 0  0.96875 0.1875 0  1 0.1875 0  0 0.21875 0  0.03125 0.21875 0  0.0625 0.21875 0  0.09375 0.21875 0  0.125 0.21875 0  0.15625 0.21875 0  0.1875 0.21875 0  0.21875 0.21875 0  0.25 0.21875 0  0.28125 0.21875 0  0.3125 0.21875 0  0.34375 0.21875 0  0.375 0.21875 0  0.40625 0.21875 0  0.4375 0.21875 0  0.46875 0.21875 0  0.5 0.21875 0  0.53125 0.21875 0  0.5625 0.21875 0  0.59375 0.21875 0  0.625 0.21875 0  0.65625 0.21875 0  0.6875 0.21875 0  0.71875 0.21875 0  0.75 0.21875 0  0.78125 0.21875 0  0.8125 0.21875 0  0.84375 0.21875 0  0.875 0.21875 0  0.90625 0.21875 0  0.9375 0.21875 0  0.96875 0.21875 0  1 0.21875 0  0 0.25 0  0.03125 0.25 0  0.0625 0.25 0  0.09375 0.25 0  0.125 0.25 0  0.15625 0.25 0  0.1875 0.25 0  0.21875 0.25 0  0.25 0.25 0  0.28125 0.25 0  0.3125 0.25 0  0.34375 0.25 0  0.375 0.25 0  0.40625 0.25 0  0.4375 0.25 0  0.46875 0.25 0  0.5 0.25 0  0.53125 0.25 0  0.5625 0.25 0  0.59375 0.25 0  0.625 0.25 0  0.65625 0.25 0  0.6875 0.25 0  0.71875 0.25 0  0.75 0.25 0  0.78125 0.25 0  0.8125 0.25 0  0.84375 0.25 0  0.875 0.25 0  0.90625 0.25 0  0.9375 0.25 0  0.96875 0.25 0  1 0.25 0  0 0.28125 0  0.03125 0.28125 0  0.0625 0.28125 0  0.09375 0.28125 0  0.125 0.28125 0  0.15625 0.28125 0  0.1875 0.28125 0  0.21875 0.28125 0  0.25 0.28125 0  0.28125 0.28125 0  0.3125 0.28125 0  0.34375 0.28125 0  0.375 0.28125 0  0.40625 0.28125 0  0.4375 0.28125 0  0.46875 0.28125 0  0.5 0.28125 0  0.53125 0.28125 0  0.5625 0.28125 0  0.59375 0.28125 0  0.625 0.28125 0  0.65625 0.28125 0  0.6875 0.28125 0  0.71875 0.28125 0  0.75 0.28125 0  0.78125 0.28125 0  0.8125 0.28125 0  0.84375 0.28125 0  0.875 0.28125 0  0.90625 0.28125 0  0.9375 0.28125 0  0.96875 0.28125 0  1 0.28125 0  0 0.3125 0  0.03125 0.3125 0  0.0625 0.3125 0  0.09375 0.3125 0  0.125 0.3125 0  0.15625 0.3125 0  0.1875 0.3125 0  0.21875 0.3125 0  0.25 0.3125 0  0.28125 0.3125 0  0.3125 0.3125 0  0.34375 0.3125 0  0.375 0.3125 0  0.40625 0.3125 0  0.4375 0.3125 0  0.46875 0.3125 0  0.5 0.3125 0  0.53125 0.3125 0  0.5625 0.3125 0  0.59375 0.3125 0  0.625 0.3125 0  0.65625 0.3125 0  0.6875 0.3125 0  0.71875 0.3125 0  0.75 0.3125 0  0.78125 0.3125 0  0.8125 0.3125 0  0.84375 0.3125 0  0.875 0.3125 0  0.90625 0.3125 0  0.9375 0.3125 0  0.96875 0.3125 0  1 0.3125 0  0 0.34375 0  0.03125 0.34375 0  0.0625 0.34375 0  0.09375 0.34375 0  0.125 0.34375 0  0.15625 0.34375 0  0.1875 0.34375 0  0.21875 0.34375 0  0.25 0.34375 0  0.28125 0.34375 0  0.3125 0.34375 0  0.34375 0.34375 0  0.375 0.34375 0  0.40625 0.34375 0  0.4375 0.34375 0  0.46875 0.34375 0  0.5 0.34375 0  0.53125 0.34375 0  0.5625 0.34375 0  0.59375 0.34375 0  0.625 0.34375 0  0.65625 0.34375 0  0.6875 0.34375 0  0.71875 0.34375 0  0.75 0.34375 0  0.78125 0.34375 0  0.8125 0.34375 0  0.84375 0.34375 0  0.875 0.34375 0  0.90625 0.34375 0  0.9375 0.34375 0  0.96875 0.34375 0  1 0.34375 0  0 0.375 0  0.03125 0.375 0  0.0625 0.375 0  0.09375 0.375 0  0.125 0.375 0  0.15625 0.375 0  0.1875 0.375 0  0.21875 0.375 0  0.25 0.375 0  0.28125 0.375 0  0.3125 0.375 0  0.34375 0.375 0  0.375 0.375 0  0.40625 0.375 0  0.4375 0.375 0  0.46875 0.375 0  0.5 0.375 0  0.53125 0.375 0  0.5625 0.375 0  0.59375 0.375 0  0.625 0.375 0  0.65625 0.375 0  0.6875 0.375 0  0.71875 0.375 0  0.75 0.375 0  0.78125 0.375 0  0.8125 0.375 0  0.84375 0.375 0  0.875 0.375 0  0.90625 0.375 0  0.9375 0.375 0  0.96875 0.375 0  1 0.375 0  0 0.40625 0  0.03125 0.40625 0  0.0625 0.40625 0  0.09375 0.40625 0  0.125 0.40625 0  0.15625 0.40625 0  0.1875 0.40625 0  0.21875 0.40625 0  0.25 0.40625 0  0.28125 0.40625 0  0.3125 0.40625 0  0.34375 0.40625 0  0.375 0.40625 0  0.40625 0.40625 0  0.4375 0.40625 0  0.46875 0.40625 0  0.5 0.40625 0  0.53125 0.40625 0  0.5625 0.40625 0  0.59375 0.40625 0  0.625 0.40625 0  0.65625 0.40625 0  0.6875 0.40625 0  0.71875 0.40625 0  0.75 0.40625 0  0.78125 0.40625 0  0.8125 0.40625 0  0.84375 0.40625 0  0.875 0.40625 0  0.90625 0.40625 0  0.9375 0.40625 0  0.96875 0.40625 0  1 0.40625 0  0 0.4375 0  0.03125 0.4375 0  0.0625 0.4375 0  0.09375 0.4375 0  0.125 0.4375 0  0.15625 0.4375 0  0.1875 0.4375 0  0.21875 0.4375 0  0.25 0.4375 0  0.28125 0.4375 0  0.3125 0.4375 0  0.34375 0.4375 0  0.375 0.4375 0  0.40625 0.4375 0  0.4375 0.4375 0  0.46875 0.4375 0  0.5 0.4375 0  0.53125 0.4375 0  0.5625 0.4375 0  0.59375 0.4375 0  0.625 0.4375 0  0.65625 0.4375 0  0.6875 0.4375 0  0.71875 0.4375 0  0.75 0.4375 0  0.78125 0.4375 0  0.8125 0.4375 0  0.84375 0.4375 0  0.875 0.4375 0  0.90625 0.4375 0  0.9375 0.4375 0  0.96875 0.4375 0  1 0.4375 0  0 0.46875 0  0.03125 0.46875 0  0.0625 0.46875 0  0.09375 0.46875 0  0.125 0.46875 0  0.15625 0.46875 0  0.1875 0.46875 0  0.21875 0.46875 0  0.25 0.46875 0  0.28125 0.46875 0  0.3125 0.46875 0  0.34375 0.46875 0  0.375 0.46875 0  0.40625 0.46875 0  0.4375 0.46875 0  0.46875 0.46875 0  0.5 0.46875 0  0.53125 0.46875 0  0.5625 0.46875 0  0.59375 0.46875 0  0.625 0.46875 0  0.65625 0.46875 0  0.6875 0.46875 0  0.71875 0.46875 0  0.75 0.46875 0  0.78125 0.46875 0  0.8125 0.46875 0  0.84375 0.46875 0  0.875 0.46875 0  0.90625 0.46875 0  0.9375 0.46875 0  0.96875 0.46875 0  1 0.46875 0  0 0.5 0  0.03125 0.5 0  0.0625 0.5 0  0.09375 0.5 0  0.125 0.5 0  0.15625 0.5 0  0.1875 0.5 0  0.21875 0.5 0  0.25 0.5 0  0.28125 0.5 0  0.3125 0.5 0  0.34375 0.5 0  0.375 0.5 0  0.40625 0.5 0  0.4375 0.5 0  0.46875 0.5 0  0.5 0.5 0  0.53125 0.5 0  0.5625 0.5 0  0.59375 0.5 0  0.625 0.5 0  0.65625 0.5 0  0.6875 0.5 0  0.71875 0.5 0  0.75 0.5 0  0.78125 0.5 0  0.8125 0.5 0  0.84375 0.5 0  0.875 0.5 0  0.90625 0.5 0  0.9375 0.5 0  0.96875 0.5 0  1 0.5 0  0 0.53125 0  0.03125 0.53125 0  0.0625 0.53125 0  0.09375 0.53125 0  0.125 0.53125 0  0.15625 0.53125 0  0.1875 0.53125 0  0.21875 0.53125 0  0.25 0.53125 0  0.28125 0.53125 0  0.3125 0.53125 0  0.34375 0.53125 0  0.375 0.53125 0  0.40625 0.53125 0  0.4375 0.53125 0  0.46875 0.53125 0  0.5 0.53125 0  0.53125 0.53125 0  0.5625 0.53125 0  0.59375 0.53125 0  0.625 0.53125 0  0.65625 0.53125 0  0.6875 0.53125 0  0.71875 0.53125 0  0.75 0.53125 0  0.78125 0.531
[...]
<PointData  Scalars="phi"> 
<DataArray  type="Float64"  Name="phi"  format="ascii">0.0000000000000000e+00  0.0000000000000000e+00  0.0000000000000000e+00  0.0000000000000000e+00  0.0000000000000000e+00  0.0000000000000000e+00  0.0000000000000000e+00  0.0000000000000000e+00  0.0000000000000000e+00  0.0000000000000000e+00  0.0000000000000000e+00  0.0000000000000000e+00  0.0000000000000000e+00  0.0000000000000000e+00  0.0000000000000000e+00  0.0000000000000000e+00  0.0000000000000000e+00  0.0000000000000000e+00  0.0000000000000000e+00  0.0000000000000000e+00  0.0000000000000000e+00  0.0000000000000000e+00  0.0000000000000000e+00  0.0000000000000000e+00  0.0000000000000000e+00  0.0000000000000000e+00  0.0000000000000000e+00  0.0000000000000000e+00  0.0000000000000000e+00  0.0000000000000000e+00  0.0000000000000000e+00  0.0000000000000000e+00  0.0000000000000000e+00  0.0000000000000000e+00  -2.7684397262104134e-16  1.9000022753523730e-05  7.4864709397911609e-05  1.8359661130229739e-04  3.5857730316423824e-04  6.0990200916655071e-04  9.4384151437797506e-04  1.3624562365307934e-03  1.8633799539353700e-03  2.4397834763925448e-03  3.0805212569757268e-03  3.7704566654638938e-03  4.4909545851089753e-03  5.2205233935342906e-03  5.9355824858096616e-03  6.6113265139796954e-03  7.2226536419208540e-03  7.7451224963886837e-03  8.1559012368155499e-03  8.4346723195569268e-03  8.5644580966221500e-03  8.5323353138315669e-03  8.3300107631717277e-03  7.9542356695300673e-03  7.4070427127244107e-03  6.6957968002612916e-03  5.8330588736446743e-03  4.8362717087352845e-03  3.7272899533580587e-03  2.5318006593319266e-03  1.2787401544137509e-03  0.0000000000000000e+00  0.0000000000000000e+00  -1.9000022754615914e-05  -1.0778212757607741e-15  9.2686275872612569e-05  2.9107239008109201e-04  6.2196798715528857e-04  1.1056452981473264e-03  1.7547628011788823e-03  2.5735931121337414e-03  3.5575891426413084e-03  4.6933087423143977e-03  5.9587037228758868e-03  7.3237647501285773e-03  8.7514995675635181e-03  1.0199208886011724e-02  1.1620012524339808e-02  1.2964568460452731e-02  1.4182919728676399e-02  1.5226398876504709e-02  1.6049517174749943e-02  1.6611766063075274e-02  1.6879261406092097e-02  1.6826166929855942e-02  1.6435841507035507e-02  1.5701665486280353e-02  1.4627513694150374e-02  1.3227856756379917e-02  1.1527487767106586e-02  9.5608881310549482e-03  7.3712652204701457e-03  5.0093166085075471e-03  2.5318006593319344e-03  0.0000000000000000e+00  0.0000000000000000e+00  -7.4864709399515388e-05  -9.2686275875778832e-05  -2.3256239055732153e-15  2.5123062071611579e-04  7.0131289588277513e-04  1.3808271591595049e-03  2.3090156287581057e-03  3.4926258714786827e-03  4.9252586229780061e-03  6.5872496934232735e-03  8.4460946209951298e-03  1.0457403399279322e-02  1.2566351786928671e-02  1.4709576188761411e-02  1.6817441615492083e-02  1.8816597451287460e-02  2.0632724251310283e-02  2.2193366999707146e-02  2.3430746486244856e-02  2.4284440859310901e-02  2.4703833979594473e-02  2.4650235772499203e-02  2.4098592051912081e-02  2.3038716827275138e-02  2.1475998368313542e-02  1.9431550670187397e-02  1.6941803769913541e-02  1.4057548877448322e-02  1.0842476479539984e-02  7.3712652204701822e-03  3.7272899533580882e-03  0.0000000000000000e+00  0.0000000000000000e+00  -1.8359661130437459e-04  -2.9107239008519339e-04  -2.5123062072214064e-04  -3.9014583661304617e-15  5.1650983951704340e-04  1.3393577806087038e-03  2.4946335583051517e-03  3.9919213141299051e-03  5.8234293083240622e-03  7.9638246983168987e-03  1.0370784718381152e-02  1.2986247570246193e-02  1.5738318938895317e-02  1.8543764332787253e-02  2.1310994399666265e-02  2.3943430873597661e-02  2.6343125617051450e-02  2.8414494921477906e-02  3.0068026222486978e-02  3.1223814871591912e-02  3.1814794576726743e-02  3.1789536361462610e-02  3.1114506981680799e-02  2.9775698078367503e-02  2.7779561172425461e-02  2.5153210011990574e-02  2.1943879706866787e-02  1.8217660262289534e-02  1.4057548877448423e-02  9.5608881310550644e-03  4.8362717087353582e-03  0.0000000000000000e+00  0.0000000000000000e+00  -3.5857730316674036e-04  -6.2196798716022907e-04  -7.0131289589003170e-04  -5.1650983952643910e-04  -5.6545793734253285e-15  8.9994718844108187e-04  2.2165830685299923e-03  3.9627710095210562e-03  6.1298995744839425e-03  8.6876654147267102e-03  1.1584739858288411e-02  1.4750298709599612e-02  1.8096361066235415e-02  2.1520851292070420e-02  2.4911269886961535e-02  2.8148834957383396e-02  3.1112937248750135e-02  3.3685738974366851e-02  3.5756740463619437e-02  3.7227139199317902e-02  3.8013813108245004e-02  3.8052773738100044e-02  3.7301954676444912e-02  3.5743225488180069e-02  3.3383550601241478e-02  3.0255244798530236e-02  2.6415310939724972e-02  2.1943879706866995e-02  1.6941803769913822e-02  1.1527487767106836e-02  5.8330588736448174e-03  0.0000000000000000e+00  0.0000000000000000e+00  -6.0990200916942049e-04  -1.1056452981529927e-03  -1.3808271591678255e-03  -1.3393577806194729e-03  -8.9994718845403711e-04  -7.4149075924606040e-15  1.4012382245131233e-03  3.3204107007909819e-03  5.7487491555345523e-03  8.6517999958415394e-03  1.1970193497939152e-02  1.5621432034100954e-02  1.9502633640229014e-02  2.3494129901870997e-02  2.7463783647900666e-02  3.1271863583510279e-02  3.4776290864254822e-02  3.7838057567886704e-02  4.0326609645727617e-02  4.2124987520769278e-02  4.3134526029760596e-02  4.3278931558815958e-02  4.2507577378049423e-02  4.0797887445905658e-02  3.8156713185459053e-02  3.4620645574440528e-02  3.0255244798530600e-02  2.5153210011991119e-02  1.9431550670187956e-02  1.3227856756380362e-02  6.6957968002615371e-03  0.0000000000000000e+00  0.0000000000000000e+00  -9.4384151438114830e-04  -1.7547628011851464e-03  -2.3090156287673014e-03  -2.4946335583170484e-03  -2.2165830685442933e-03  -1.4012382245294787e-03  -9.0084818033435882e-15  2.0080858555742891e-03  4.6148199387208745e-03  7.7825139697595934e-03  1.1444848414814555e-02  1.5508895820549005e-02  1.9858237372162104e-02  2.4357057545921778e-02  2.8855063457271967e-02  3.3193043084088991e-02  3.7208851225887601e-02  4.0743594824084739e-02  4.3647780785253970e-02  4.5787190051304362e-02  4.7048251330340046e-02  4.7342706271963922e-02  4.6611384235561867e-02  4.4826938140934969e-02  4.1995431910875965e-02  3.8156713185459622e-02  3.3383550601242373e-02  2.7779561172426470e-02  2.1475998368314476e-02  1.4627513694151084e-02  7.4070427127247906e-03  0.0000000000000000e+00  0.0000000000000000e+00  -1.3624562365342006e-03  -2.5735931121404661e-03  -3.4926258714885507e-03  -3.9919213141426622e-03  -3.9627710095363790e-03  -3.3204107008084861e-03  -2.0080858555935441e-03  -1.0271033544898206e-14  2.6969744528772838e-03  6.0428953490982464e-03  9.9656816671398751e-03  1.4363346222619238e-02  1.9107449725738062e-02  2.4047648152983925e-02  2.9017162695104681e-02  3.3838965354389322e-02  3.8332444984476105e-02  4.2320299289483790e-02  4.5635388773985833e-02  4.8127289233707522e-02  4.9668290081363739e-02  5.0158606205380214e-02  4.9530600378700884e-02  4.7751850341384267e-02  4.4826938140935788e-02  4.0797887445907011e-02  3.5743225488181686e-02  2.9775698078369123e-02  2.3038716827276554e-02  1.5701665486281394e-02  7.9542356695306189e-03  0.0000000000000000e+00  0.0000000000000000e+00  -1.8633799539389390e-03  -3.5575891426483501e-03  -4.9252586229883346e-03  -5.8234293083374048e-03  -6.1298995744999514e-03  -5.7487491555528146e-03  -4.6148199387409288e-03  -2.6969744528986326e-03  -1.1064216044218832e-14  3.4349212969631698e-03  7.5312007766406112e-03  1.2179257600520590e-02  1.7240271605143333e-02  2.2551135018344642e-02  2.7930416679739795e-02  3.3185112781953775e-02  3.8117927165040102e-02  4.2534803049653118e-02  4.6252417604161988e-02  4.9105351316420617e-02  5.0952655765901550e-02  5.1683565624401406e-02  5.1222132702657443e-02  4.9530600378701987e-02  4.6611384235563748e-02  4.2507577378051768e-02  3.7301954676447410e-02  3.1114506981683165e-02  2.4098592051914079e-02  1.6435841507036947e-02  8.3300107631724823e-03  0.0000000000000000e+00  0.0000000000000000e+00  -2.4397834763962029e-03  -4.6933087423216124e-03  -6.5872496934338484e-03  -7.9638246983305475e-03  -8.6876654147430652e-03  -8.6517999958601634e-03  -7.7825139697800041e-03  -6.0428953491199174e-03  -3.4349212969855612e-03  -1.1284763257294361e-14  4.1820588823585272e-03  8.9956110077372559e-03  1.4293187624621449e-02  1.9900799544420332e-02  2.5624334694852275e-02  3.1256806446696518e-02  3.6586176501374773e-02  4.1403453298789097e-02  4.5510755536574223e-02  4.8729030926297920e-02  5.0905132734500827e-02  5.1917980495132091e-02  5.1683565624402808e-02  5.0158606205382678e-02  4.7342706271967093e-02  4.3278931558819483e-02  3.8052773738103583e-02  3.1789536361465850e-02  2.4650235772501881e-02  1.6826166929857847e-02  8.5323353138325557e-03  0.0000000000000000e+00  0.0000000000000000e+00  -3.0805212569794023e-03  -5.9587037228831328e-03  -8.4460946210057411e-03  -1.0370784718394832e-02  -1.1584739858304778e-02  -1.1970193497957757e-02  -1.1444848414834891e-02  -9.9656816671613996e-03  -7.5312007766627654e-03  -4.1820588823807507e-03  -1.0877483324296309e-14  4.8948299237252099e-03  1.0348107230595299e-02  1.6176931618812812e-02  2.2176592177192776e-02  2.8128241142776154e-02  3.3807182622844122e-02  3.8991459219817504e-02  4.3470407348130333e-02  4.7052852508153095e-02  4.9574628871161652e-02  5.0905132734502534e-02  5.0952655765904631e-02  4.9668290081367798e-02  4.7048251330344709e-02  4.3134526029765474e-02  3.8013813108249722e-02  3.1814794576730962e-02  2.4703833979597908e-02  1.6879261406094519e-02  8.5644580966234007e-03  0.0000000000000000e+00  0.0000000000000000e+00  -3.7704566654675185e-03  -7.3237647501357209e-03  -1.0457403399289774e-02  -1.2986247570259650e-02  -1.4750298709615681e-02  -1.5621432034119172e-02  -1.5508895820568858e-02  -1.4363346222640173e-02  -1.2179257600542035e-02  -8.9956110077586433e-03  -4.8948299237459927e-03  -9.8358154246393649e-15  5.5295241016505171e-03  1.1503959305408413e-02  1.7710160600906966e-02  2.3919644250869201e-02  2.9897261274325404e-02  3.5410189198814210e-02  4.0236897250039434e-02  4.4175740549364552e-02  4.7052852508155094e-02  4.8729030926301597e-02  4.9105351316425593e-02  4.8127289233713386e-02  4.5787190051310690e-02  4.2124987520775647e-02  3.7227139199323918e-02  3.1223814871597200e-02  2.4284440859315158e-02  1.6611766063078254e-02  8.4346723195584585e-03  0.0000000000000000e+00  0.0000000000000000e+00  -4.4909545851124872e-03  -8.7514995675704345e-03  -1.2566351786938780e-02  -1.5738318938908306e-02  -1.8096361066250892e-02  -1.9502633640246514e-02  -1.9858237372181106e-02  -1.9107449725758008e-02  -1.7240271605163646e-02  -1.4293187624641560e-02  -1.0348107230614662e-02  -5.5295241016686250e-03  -8.2062067856628856e-15  6.0458560511640102e-03  1.2388684222915305e-02  1.8792667529746603e-02  2.5014505505632167e-02  3.0812724170773503e-02  3.5956965166504526e-02  4.0236897250041696e-02  4.3470407348134565e-02  4.5510755536580065e-02  4.6252417604169031e-02  4.5635388773993625e-02  4.3647780785262075e-02  4.0326609645735575e-02  3.5756740463626820e-02  3.0068026222493393e-02  2.3430746486249973e-02  1.6049517174753506e-02  8.1559012368173749e-03  0.0000000000000000e+00  0.0000000000000000e+00  -5.2205233935376334e-03  -1.0199208886018303e-02  -1.4709576188771016e-02  -1.8543764332799570e-02  -2.1520851292085055e-02  -2.3494129901887487e-02  -2.4357057545939604e-02  -2.4047648153002532e-02  -2.2551135018363457e-02  -1.9900799544438789e-02  -1.6176931618830371e-02  -1.1503959305424581e-02  -6.0458560511783537e-03  -6.0824869844263487e-15  6.4102802935393846e-03  1.2944188736959645e-02  1.9352648352272312e-02  2.5387839566344453e-02  3.0812724170775976e-02  3.5410189198818921e-02  3.8991459219824116e-02  4.1403453298797230e-02  4.2534803049662326e-02  4.2320299289493608e-02  4.0743594824094675e-02  3.7838057567896294e-02  3.3685738974375629e-02  2.8414494921485466e-02  2.2193366999713141e-02  1.5226398876508864e-02  7.7451224963908070e-03  0.0000000000000000e+00  0.0000000000000000e+00  -5.9355824858127884e-03  -1.1620012524345958e-02  -1.6817441615501045e-02  -2.1310994399677728e-02  -2.4911269886975118e-02  -2.7463783647915900e-02  -2.8855063457288346e-02  -2.9017162695121661e-02  -2.7930416679756813e-02  -2.5624334694868772e-02  -2.2176592177208229e-02  -1.7710160600920895e-02  -1.2388684222927297e-02  -6.4102802935491043e-03  -3.6001126825587086e-15  6.5987610297886367e-03  1.3133573357707625e-02  1.9352648352274935e-02  2.5014505505637236e-02  2.9897261274332645e-02  3.3807182622853184e-02  3.6586176501385244e-02  3.8117927165051517e-02  3.8332444984487957e-02  3.7208851225899384e-02  3.4776290864266035e-02  3.1112937248760301e-02  2.6343125617060145e-02  2.0632724251317142e-02  1.4182919728681135e-02  7.2226536419232705e-03  0.0000000000000000e+00  0.0000000000000000e+00  -6.6113265139825699e-03  -1.2964568460458377e-02  -1.8816597451295672e-02  -2.3943430873608139e-02  -2.8148834957395757e-02  -3.1271863583524080e-02  -3.3193043084103722e-02  -3.3838965354404456e-02  -3.3185112781968770e-02  -3.1256806446710833e-02  -2.8128241142789282e-02  -2.3919644250880688e-02  -1.8792667529756054e-02  -1.2944188736966749e-02  -6.5987610297931721e-03  -9.2287341845648391e-16  6.5987610297913351e-03  1.2944188736964939e-02  1.8792667529754288e-02  2.3919644250878985e-02  2.8128241142787655e-02  3.1256806446709293e-02  3.3185112781967341e-02  3.3838965354403151e-02  3.3193043084102550e-02  3.1271863583523053e-02  2.8148834957394894e-02  2.3943430873607438e-02  1.8816597451295141e-02  1.2964568460458020e-02  6.6113265139823903e-03  0.0000000000000000e+00  0.0000000000000000e+00  -7.2226536419234483e-03  -1.4182919728681487e-02  -2.0632724251317666e-02  -2.6343125617060838e-02  -3.1112937248761158e-02  -3.4776290864267041e-02  -3.7208851225900542e-02  -3.8332444984489254e-02  -3.8117927165052926e-02  -3.6586176501386770e-02  -3.3807182622854801e-02  -2.9897261274334338e-02  -2.5014505505638988e-02  -1.9352648352276732e-02  -1.3133573357709451e-02  -6.5987610297904729e-03  1.7712798924788683e-15  6.4102802935473010e-03  1.2388684222925536e-02  1.7710160600919199e-02  2.2176592177206609e-02  2.5624334694867239e-02  2.7930416679755384e-02  2.9017162695120356e-02  2.8855063457287177e-02  2.7463783647914877e-02  2.4911269886974247e-02  2.1310994399677027e-02  1.6817441615500514e-02  1.1620012524345601e-02  5.9355824858126089e-03  0.0000000000000000e+00  0.0000000000000000e+00  -7.7451224963909805e-03  -1.5226398876509209e-02  -2.2193366999713655e-02  -2.8414494921486146e-02  -3.3685738974376468e-02  -3.7838057567897286e-02  -4.0743594824095813e-02  -4.2320299289494878e-02  -4.2534803049663714e-02  -4.1403453298798722e-02  -3.8991459219825705e-02  -3.5410189198820580e-02  -3.0812724170777697e-02  -2.5387839566346222e-02  -1.9352648352274113e-02  -1.2944188736961454e-02  -6.4102802935411879e-03  4.3032943162186218e-15  6.0458560511766164e-03  1.1503959305422900e-02  1.6176931618828765e-02  1.9900799544437273e-02  2.2551135018362041e-02  2.4047648153001238e-02  2.4357057545938445e-02  2.3494129901886474e-02  2.1520851292084194e-02  1.8543764332798873e-02  1.4709576188770487e-02  1.0199208886017948e-02  5.2205233935374556e-03  0.0000000000000000e+00  0.0000000000000000e+00  -8.1559012368175414e-03  -1.6049517174753839e-02  -2.3430746486250473e-02  -3.0068026222494052e-02  -3.5756740463627631e-02  -4.0326609645736540e-02  -4.3647780785263178e-02  -4.5635388773994860e-02  -4.6252417604170377e-02  -4.5510755536581515e-02  -4.3470407348136106e-02  -4.0236897250043320e-02  -3.5956965166506205e-02  -3.0812724170775227e-02  -2.5014505505633920e-02  -1.8792667529748366e-02  -1.2388684222917064e-02  -6.0458560511657475e-03  6.5079641760374738e-15  5.5295241016669831e-03  1.0348107230613090e-02  1.4293187624640075e-02  1.7240271605162262e-02  1.9107449725756741e-02  1.9858237372179968e-02  1.9502633640245522e-02  1.8096361066250052e-02  1.5738318938907623e-02  1.2566351786938261e-02  8.7514995675700875e-03  4.4909545851123129e-03  0.0000000000000000e+00  0.0000000000000000e+00  -8.4346723195586198e-03  -1.6611766063078574e-02  -2.4284440859315637e-02  -3.1223814871597831e-02  -3.7227139199324695e-02  -4.2124987520776570e-02  -4.5787190051311752e-02  -4.8127289233714572e-02  -4.9105351316426890e-02  -4.8729030926302999e-02  -4.7052852508156585e-02  -4.4175740549366113e-02  -4.0236897250041058e-02  -3.5410189198815875e-02  -2.9897261274327094e-02  -2.3919644250870908e-02  -1.7710160600908666e-02  -1.1503959305410091e-02  -5.5295241016521581e-03  8.2472153809491156e-15  4.8948299237444740e-03  8.9956110077572086e-03  1.2179257600540698e-02  1.4363346222638948e-02  1.5508895820567758e-02  1.5621432034118209e-02  1.4750298709614862e-02  1.2986247570258985e-02  1.0457403399289271e-02  7.3237647501353826e-03  3.7704566654673489e-03  0.0000000000000000e+00  0.0000000000000000e+00  -8.5644580966235534e-03  -1.6879261406094824e-02  -2.4703833979598362e-02  -3.1814794576731566e-02  -3.8013813108250458e-02  -4.3134526029766355e-02  -4.7048251330345722e-02  -4.9668290081368929e-02  -5.0952655765905866e-02  -5.0905132734503873e-02  -4.9574628871163068e-02  -4.7052852508154580e-02  -4.3470407348131873e-02  -3.8991459219819093e-02  -3.3807182622845738e-02  -2.8128241142777781e-02  -2.2176592177194400e-02  -1.6176931618814415e-02  -1.0348107230596867e-02  -4.8948299237267278e-03  9.4246044788284959e-15  4.1820588823793785e-03  7.5312007766614869e-03  9.9656816671602269e-03  1.1444848414833836e-02  1.1970193497956834e-02  1.1584739858303996e-02  1.0370784718394198e-02  8.4460946210052588e-03  5.9587037228828093e-03  3.0805212569792397e-03  0.0000000000000000e+00  0.0000000000000000e+00  -8.5323353138326997e-03  -1.6826166929858132e-02  -2.4650235772502312e-02  -3.1789536361466419e-02  -3.8052773738104277e-02  -4.3278931558820309e-02  -4.7342706271968044e-02  -5.0158606205383746e-02  -5.1683565624403974e-02  -5.1917980495133347e-02  -5.0905132734502166e-02  -4.8729030926299328e-02  -4.5510755536575687e-02  -4.1403453298790596e-02  -3.6586176501376293e-02  -3.1256806446698052e-02  -2.5624334694853805e-02  -1.9900799544421845e-02  -1.4293187624622929e-02  -8.9956110077386887e-03  -4.1820588823598985e-03  9.9891207785008779e-15  3.4349212969843538e-03  6.0428953491188115e-03  7.7825139697790102e-03  8.6517999958592925e-03  8.6876654147423245e-03  7.9638246983299472e-03  6.5872496934333922e-03  4.6933087423213062e-03  2.4397834763960490e-03  0.0000000000000000e+00  0.0000000000000000e+00  -8.3300107631726159e-03  -1.6435841507037214e-02  -2.4098592051914478e-02  -3.1114506981683689e-02  -3.7301954676448056e-02  -4.2507577378052532e-02  -4.6611384235564629e-02  -4.9530600378702973e-02  -5.1222132702658525e-02  -5.1683565624402572e-02  -5.0952655765902785e-02  -4.9105351316421929e-02  -4.6252417604163348e-02  -4.2534803049654506e-02  -3.8117927165041518e-02  -3.3185112781955198e-02  -2.7930416679741214e-02  -2.2551135018346043e-02  -1.7240271605144707e-02  -1.2179257600521923e-02  -7.5312007766418871e-03  -3.4349212969643755e-03  9.9402836102574361e-15  2.6969744528976027e-03  4.6148199387400033e-03  5.7487491555520027e-03  6.1298995744992618e-03  5.8234293083368445e-03  4.9252586229879087e-03  3.5575891426480647e-03  1.8633799539387954e-03  0.0000000000000000e+00  0.0000000000000000e+00  -7.9542356695307403e-03  -1.5701665486281637e-02  -2.3038716827276914e-02  -2.9775698078369602e-02  -3.5743225488182276e-02  -4.0797887445907711e-02  -4.4826938140936586e-02  -4.7751850341385169e-02  -4.9530600378701876e-02  -5.0158606205381283e-02  -4.9668290081364870e-02  -4.8127289233708716e-02  -4.5635388773987068e-02  -4.2320299289485060e-02  -3.8332444984477396e-02  -3.3838965354390620e-02  -2.9017162695105979e-02  -2.4047648152985209e-02  -1.9107449725739321e-02  -1.4363346222620456e-02  -9.9656816671410426e-03  -6.0428953490993496e-03  -2.6969744528783130e-03  9.3276756776827828e-15  2.008085855592695