<?xml version="1.0"?>
<VTKFile type="UnstructuredGrid"  version="0.1"  >
<UnstructuredGrid>
<Piece  NumberOfPoints="1089" NumberOfCells="2048">
<Points>
<DataArray  type="Float64"  NumberOfComponents="3"  format="ascii">0 0 0  0.03125 0 0  0.0625 0 0  0.09375 0 0  0.125 0 0  0.15625 0 0  0.1875 0 0  0.21875 0 0  0.25 0 0  0.28125 0 0  0.3125 0 0  0.34375 0 0  0.375 0 0  0.40625 0 0  0.4375 0 0  0.46875 0 0  0.5 0 0  0.53125 0 0  0.5625 0 0  0.59375 0 0  0.625 0 0  0.65625 0 0  0.6875 0 0  0.71875 0 0  0.75 0 0  0.78125 0 0  0.8125 0 0  0.84375 0 0  0.875 0 0  0.90625 0 0  0.9375 0 0  0.96875 0 0  1 0 0  0 0.03125 0  0.03125 0.03125 0  0.0625 0.03125 0  0.09375 0.03125 0  0.125 0.03125 0  0.15625 0.03125 0  0.1875 0.03125 0  0.21875 0.03125 0  0.25 0.03125 0  0.28125 0.03125 0  0.3125 0.03125 0  0.34375 0.03125 0  0.375 0.03125 0  0.40625 0.03125 0  0.4375 0.03125 0  0.46875 0.03125 0  0.5 0.03125 0  0.53125 0.03125 0  0.5625 0.03125 0  0.59375 0.03125 0  0.625 0.03125 0  0.65625 0.03125 0  0.6875 0.03125 0  0.71875 0.03125 0  0.75 0.03125 0  0.78125 0.03125 0  0.8125 0.03125 0  0.84375 0.03125 0  0.875 0.03125 0  0.90625 0.03125 0  0.9375 0.03125 0  0.96875 0.03125 0  1 0.03125 0  0 0.0625 0  0.03125 0.0625 0  0.0625 0.0625 0  0.09375 0.0625 0  0.125 0.0625 0  0.15625 0.0625 0  0.1875 0.0625 0  0.21875 0.0625 0  0.25 0.0625 0  0.28125 0.0625 0  0.3125 0.0625 0  0.34375 0.0625 0  0.375 0.0625 0  0.40625 0.0625 0  0.4375 0.0625 0  0.46875 0.0625 0  0.5 0.0625 0  0.53125 0.0625 0  0.5625 0.0625 0  0.59375 0.0625 0  0.625 0.0625 0  0.65625 0.0625 0  0.6875 0.0625 0  0.71875 0.0625 0  0.75 0.0625 0  0.78125 0.0625 0  0.8125 0.0625 0  0.84375 0.0625 0  0.875 0.0625 0  0.90625 0.0625 0  0.9375 0.0625 0  0.96875 0.0625 0  1 0.0625 0  0 0.09375 0  0.03125 0.09375 0  0.0625 0.09375 0  0.09375 0.09375 0  0.125 0.09375 0  0.15625 0.09375 0  0.1875 0.09375 0  0.21875 0.09375 0  0.25 0.09375 0  0.28125 0.09375 0  0.3125 0.09375 0  0.34375 0.09375 0  0.375 0.09375 0  0.40625 0.09375 0  0.4375 0.09375 0  0.46875 0.09375 0  0.5 0.09375 0  0.53125 0.09375 0  0.5625 0.09375 0  0.59375 0.09375 0  0.625 0.09375 0  0.65625 0.09375 0  0.6875 0.09375 0  0.71875 0.09375 0  0.75 0.09375 0  0.78125 0.09375 0  0.8125 0.09375 0  0.84375 0.09375 0  0.875 0.09375 0  0.90625 0.09375 0  0.9375 0.09375 0  0.96875 0.09375 0  1 0.09375 0  0 0.125 0  0.03125 0.125 0  0.0625 0.125 0  0.09375 0.125 0  0.125 0.125 0  0.15625 0.125 0  0.1875 0.125 0  0.21875 0.125 0  0.25 0.125 0  0.28125 0.125 0  0.3125 0.125 0  0.34375 0.125 0  0.375 0.125 0  0.40625 0.125 0  0.4375 0.125 0  0.46875 0.125 0  0.5 0.125 0  0.53125 0.125 0  0.5625 0.125 0  0.59375 0.125 0  0.625 0.125 0  0.65625 0.125 0  0.6875 0.125 0  0.71875 0.125 0  0.75 0.125 0  0.78125 0.125 0  0.8125 0.125 0  0.84375 0.125 0  0.875 0.125 0  0.90625 0.125 0  0.9375 0.125 0  0.96875 0.125 0  1 0.125 0  0 0.15625 0  0.03125 0.15625 0  0.0625 0.15625 0  0.09375 0.15625 0  0.125 0.15625 0  0.15625 0.15625 0  0.1875 0.15625 0  0.21875 0.15625 0  0.25 0.15625 0  0.28125 0.15625 0  0.3125 0.15625 0  0.34375 0.15625 0  0.375 0.15625 0  0.40625 0.15625 0  0.4375 0.15625 0  0.46875 0.15625 0  0.5 0.15625 0  0.53125 0.15625 0  0.5625 0.15625 0  0.59375 0.15625 0  0.625 0.15625 0  0.65625 0.15625 0  0.6875 0.15625 0  0.71875 0.15625 0  0.75 0.15625 0  0.78125 0.15625 0  0.8125 0.15625 0  0.84375 0.15625 0  0.875 0.15625 0  0.90625 0.15625 0  0.9375 0.15625 0  0.96875 0.15625 0  1 0.15625 0  0 0.1875 0  0.03125 0.1875 0  0.0625 0.1875 0  0.09375 0.1875 0  0.125 0.1875 0  0.15625 0.1875 0  0.1875 0.1875 0  0.21875 0.1875 0  0.25 0.1875 0  0.28125 0.1875 0  0.3125 0.1875 0  0.34375 0.1875 0  0.375 0.1875 0  0.40625 0.1875 0  0.4375 0.1875 0  0.46875 0.1875 0  0.5 0.1875 0  0.53125 0.1875 0  0.5625 0.1875 0  0.59375 0.1875 0  0.625 0.1875 0  0.65625 0.1875 0  0.6875 0.1875 0  0.71875 0.1875 0  0.75 0.1875 0  0.78125 0.1875 0  0.8125 0.1875 0  0.84375 0.1875 0  0.875 0.1875 0  0.90625 0.1875 0  0.9375 0.1875 0  0.96875 0.1875 0  1 0.1875 0  0 0.21875 0  0.03125 0.21875 0  0.0625 0.21875 0  0.09375 0.21875 0  0.125 0.21875 0  0.15625 0.21875 0  0.1875 0.21875 0  0.21875 0.21875 0  0.25 0.21875 0  0.28125 0.21875 0  0.3125 0.21875 0  0.34375 0.21875 0  0.375 0.21875 0  0.40625 0.21875 0  0.4375 0.21875 0  0.46875 0.21875 0  0.5 0.21875 0  0.53125 0.21875 0  0.5625 0.21875 0  0.59375 0.21875 0  0.625 0.21875 0  0.65625 0.21875 0  0.6875 0.21875 0  0.71875 0.21875 0  0.75 0.21875 0  0.78125 0.21875 0  0.8125 0.21875 0  0.84375 0.21875 0  0.875 0.21875 0  0.90625 0.21875 0  0.9375 0.21875 0  0.96875 0.21875 0  1 0.21875 0  0 0.25 0  0.03125 0.25 0  0.0625 0.25 0  0.09375 0.25 0  0.125 0.25 0  0.15625 0.25 0  0.1875 0.25 0  0.21875 0.25 0  0.25 0.25 0  0.28125 0.25 0  0.3125 0.25 0  0.34375 0.25 0  0.375 0.25 0  0.40625 0.25 0  0.4375 0.25 0  0.46875 0.25 0  0.5 0.25 0  0.53125 0.25 0  0.5625 0.25 0  0.59375 0.25 0  0.625 0.25 0  0.65625 0.25 0  0.6875 0.25 0  0.71875 0.25 0  0.75 0.25 0  0.78125 0.25 0  0.8125 0.25 0  0.84375 0.25 0  0.875 0.25 0  0.90625 0.25 0  0.9375 0.25 0  0.96875 0.25 0  1 0.25 0  0 0.28125 0  0.03125 0.28125 0  0.0625 0.28125 0  0.09375 0.28125 0  0.125 0.28125 0  0.15625 0.28125 0  0.1875 0.28125 0  0.21875 0.28125 0  0.25 0.28125 0  0.28125 0.28125 0  0.3125 0.28125 0  0.34375 0.28125 0  0.375 0.28125 0  0.40625 0.28125 0  0.4375 0.28125 0  0.46875 0.28125 0  0.5 0.28125 0  0.53125 0.28125 0  0.5625 0.28125 0  0.59375 0.28125 0  0.625 0.28125 0  0.65625 0.28125 0  0.6875 0.28125 0  0.71875 0.28125 0  0.75 0.28125 0  0.78125 0.28125 0  0.8125 0.28125 0  0.84375 0.28125 0  0.875 0.28125 0  0.90625 0.28125 0  0.9375 0.28125 0  0.96875 0.28125 0  1 0.28125 0  0 0.3125 0  0.03125 0.3125 0  0.0625 0.3125 0  0.09375 0.3125 0  0.125 0.3125 0  0.15625 0.3125 0  0.1875 0.3125 0  0.21875 0.3125 0  0.25 0.3125 0  0.28125 0.3125 0  0.3125 0.3125 0  0.34375 0.3125 0  0.375 0.3125 0  0.40625 0.3125 0  0.4375 0.3125 0  0.46875 0.3125 0  0.5 0.3125 0  0.53125 0.3125 0  0.5625 0.3125 0  0.59375 0.3125 0  0.625 0.3125 0  0.65625 0.3125 0  0.6875 0.3125 0  0.71875 0.3125 0  0.75 0.3125 0  0.78125 0.3125 0  0.8125 0.3125 0  0.84375 0.3125 0  0.875 0.3125 0  0.90625 0.3125 0  0.9375 0.3125 0  0.96875 0.3125 0  1 0.3125 0  0 0.34375 0  0.03125 0.34375 0  0.0625 0.34375 0  0.09375 0.34375 0  0.125 0.34375 0  0.15625 0.34375 0  0.1875 0.34375 0  0.21875 0.34375 0  0.25 0.34375 0  0.28125 0.34375 0  0.3125 0.34375 0  0.34375 0.34375 0  0.375 0.34375 0  0.40625 0.34375 0  0.4375 0.34375 0  0.46875 0.34375 0  0.5 0.34375 0  0.53125 0.34375 0  0.5625 0.34375 0  0.59375 0.34375 0  0.625 0.34375 0  0.65625 0.34375 0  0.6875 0.34375 0  0.71875 0.34375 0  0.75 0.34375 0  0.78125 0.34375 0  0.8125 0.34375 0  0.84375 0.34375 0  0.875 0.34375 0  0.90625 0.34375 0  0.9375 0.34375 0  0.96875 0.34375 0  1 0.34375 0  0 0.375 0  0.03125 0.375 0  0.0625 0.375 0  0.09375 0.375 0  0.125 0.375 0  0.15625 0.375 0  0.1875 0.375 0  0.21875 0.375 0  0.25 0.375 0  0.28125 0.375 0  0.3125 0.375 0  0.34375 0.375 0  0.375 0.375 0  0.40625 0.375 0  0.4375 0.375 0  0.46875 0.375 0  0.5 0.375 0  0.53125 0.375 0  0.5625 0.375 0  0.59375 0.375 0  0.625 0.375 0  0.65625 0.375 0  0.6875 0.375 0  0.71875 0.375 0  0.75 0.375 0  0.78125 0.375 0  0.8125 0.375 0  0.84375 0.375 0  0.875 0.375 0  0.90625 0.375 0  0.9375 0.375 0  0.96875 0.375 0  1 0.375 0  0 0.40625 0  0.03125 0.40625 0  0.0625 0.40625 0  0.09375 0.40625 0  0.125 0.40625 0  0.15625 0.40625 0  0.1875 0.40625 0  0.21875 0.40625 0  0.25 0.40625 0  0.28125 0.40625 0  0.3125 0.40625 0  0.34375 0.40625 0  0.375 0.40625 0  0.40625 0.40625 0  0.4375 0.40625 0  0.46875 0.40625 0  0.5 0.40625 0  0.53125 0.40625 0  0.5625 0.40625 0  0.59375 0.40625 0  0.625 0.40625 0  0.65625 0.40625 0  0.6875 0.40625 0  0.71875 0.40625 0  0.75 0.40625 0  0.78125 0.40625 0  0.8125 0.40625 0  0.84375 0.40625 0  0.875 0.40625 0  0.90625 0.40625 0  0.9375 0.40625 0  0.96875 0.40625 0  1 0.40625 0  0 0.4375 0  0.03125 0.4375 0  0.0625 0.4375 0  0.09375 0.4375 0  0.125 0.4375 0  0.15625 0.4375 0  0.1875 0.4375 0  0.21875 0.4375 0  0.25 0.4375 0  0.28125 0.4375 0  0.3125 0.4375 0  0.34375 0.4375 0  0.375 0.4375 0  0.40625 0.4375 0  0.4375 0.4375 0  0.46875 0.4375 0  0.5 0.4375 0  0.53125 0.4375 0  0.5625 0.4375 0  0.59375 0.4375 0  0.625 0.4375 0  0.65625 0.4375 0  0.6875 0.4375 0  0.71875 0.4375 0  0.75 0.4375 0  0.78125 0.4375 0  0.8125 0.4375 0  0.84375 0.4375 0  0.875 0.4375 0  0.90625 0.4375 0  0.9375 0.4375 0  0.96875 0.4375 0  1 0.4375 0  0 0.46875 0  0.03125 0.46875 0  0.0625 0.46875 0  0.09375 0.46875 0  0.125 0.46875 0  0.15625 0.46875 0  0.1875 0.46875 0  0.21875 0.46875 0  0.25 0.46875 0  0.28125 0.46875 0  0.3125 0.46875 0  0.34375 0.46875 0  0.375 0.46875 0  0.40625 0.46875 0  0.4375 0.46875 0  0.46875 0.46875 0  0.5 0.46875 0  0.53125 0.46875 0  0.5625 0.46875 0  0.59375 0.46875 0  0.625 0.46875 0  0.65625 0.46875 0  0.6875 0.46875 0  0.71875 0.46875 0  0.75 0.46875 0  0.78125 0.46875 0  0.8125 0.46875 0  0.84375 0.46875 0  0.875 0.46875 0  0.90625 0.46875 0  0.9375 0.46875 0  0.96875 0.46875 0  1 0.46875 0  0 0.5 0  0.03125 0.5 0  0.0625 0.5 0  0.09375 0.5 0  0.125 0.5 0  0.15625 0.5 0  0.1875 0.5 0  0.21875 0.5 0  0.25 0.5 0  0.28125 0.5 0  0.3125 0.5 0  0.34375 0.5 0  0.375 0.5 0  0.40625 0.5 0  0.4375 0.5 0  0.46875 0.5 0  0.5 0.5 0  0.53125 0.5 0  0.5625 0.5 0  0.59375 0.5 0  0.625 0.5 0  0.65625 0.5 0  0.6875 0.5 0  0.71875 0.5 0  0.75 0.5 0  0.78125 0.5 0  0.8125 0.5 0  0.84375 0.5 0  0.875 0.5 0  0.90625 0.5 0  0.9375 0.5 0  0.96875 0.5 0  1 0.5 0  0 0.53125 0  0.03125 0.53125 0  0.0625 0.53125 0  0.09375 0.53125 0  0.125 0.53125 0  0.15625 0.53125 0  0.1875 0.53125 0  0.21875 0.53125 0  0.25 0.53125 0  0.28125 0.53125 0  0.3125 0.53125 0  0.34375 0.53125 0  0.375 0.53125 0  0.40625 0.53125 0  0.4375 0.53125 0  0.46875 0.53125 0  0.5 0.53125 0  0.53125 0.53125 0  0.5625 0.53125 0  0.59375 0.53125 0  0.625 0.53125 0  0.65625 0.53125 0  0.6875 0.53125 0  0.71875 0.53125 0  0.75 0.53125 0  0.78125 0.531
[...]
<PointData  Scalars="phi"> 
<DataArray  type="Float64"  Name="phi"  format="ascii">0.0000000000000000e+00  0.0000000000000000e+00  0.0000000000000000e+00  0.0000000000000000e+00  0.0000000000000000e+00  0.0000000000000000e+00  0.0000000000000000e+00  0.0000000000000000e+00  0.0000000000000000e+00  0.0000000000000000e+00  0.0000000000000000e+00  0.0000000000000000e+00  0.0000000000000000e+00  0.0000000000000000e+00  0.0000000000000000e+00  0.0000000000000000e+00  0.0000000000000000e+00  0.0000000000000000e+00  0.0000000000000000e+00  0.0000000000000000e+00  0.0000000000000000e+00  0.0000000000000000e+00  0.0000000000000000e+00  0.0000000000000000e+00  0.0000000000000000e+00  0.0000000000000000e+00  0.0000000000000000e+00  0.0000000000000000e+00  0.0000000000000000e+00  0.0000000000000000e+00  0.0000000000000000e+00  0.0000000000000000e+00  0.0000000000000000e+00  0.0000000000000000e+00  -9.3550166344691660e-20  2.8860993031484665e-10  1.1371932997631502e-09  2.7888285139120894e-09  5.4467814000429205e-09  9.2643981929217814e-09  1.4336931980732524e-08  2.0695680463810912e-08  2.8304700786391838e-08  3.7060257698562327e-08  4.6793050586028192e-08  5.7273154366454361e-08  6.8217502023598645e-08  7.9299636283132229e-08  9.0161368271381065e-08  1.0042590529487748e-07  1.0971195101135764e-07  1.1764824149526035e-07  1.2388796158721842e-07  1.2812248824319145e-07  1.3009393136114733e-07  1.2960598699245832e-07  1.2653268148859883e-07  1.2082466602659133e-07  1.1251281696845575e-07  1.0170900709829907e-07  8.8604036843120491e-08  7.3462861587134664e-08  5.6617452953297070e-08  3.8457996697497358e-08  1.9424035006128535e-08  0.0000000000000000e+00  0.0000000000000000e+00  -2.8860993068681519e-10  -3.6984740692275633e-19  1.4079025048670981e-09  4.4213832449677931e-09  9.4476801345918828e-09  1.6794727920492559e-08  2.6654808608763123e-08  3.9092823141326797e-08  5.4039701345185322e-08  7.1291257249657421e-08  9.0512579356547818e-08  1.1124782653507902e-07  1.3293508721712847e-07  1.5492576013316109e-07  1.7650773635605118e-07  1.9693151164825430e-07  2.1543824079269610e-07  2.3128866624914903e-07  2.4379181521513939e-07  2.5233236354422617e-07  2.5639561196019391e-07  2.5558910802632480e-07  2.4966007338204921e-07  2.3850795566798652e-07  2.2219161341491875e-07  2.0093085511157916e-07  1.7510228731620969e-07  1.4522968181318722e-07  1.1196935764287146e-07  7.6091409833794250e-08  3.8457996697497471e-08  0.0000000000000000e+00  0.0000000000000000e+00  -1.1371933003159926e-09  -1.4079025059666445e-09  -8.1731447090737057e-19  3.8161876384830191e-09  1.0652927564131145e-08  2.0974734376299961e-08  3.5073896949203637e-08  5.3052910675109502e-08  7.4814570868463967e-08  1.0006017891535340e-07  1.2829599275093669e-07  1.5884772914766459e-07  1.9088260907733507e-07  2.2343814091357583e-07  2.5545657069060352e-07  2.8582370415655709e-07  3.1341063056817208e-07  3.3711675981771225e-07  3.5591252718265029e-07  3.6888012605715480e-07  3.7525069839101097e-07  3.7443654279644254e-07  3.6605708673380301e-07  3.4995760522907009e-07  3.2621994598163853e-07  2.9516483011666651e-07  2.5734562910047403e-07  2.1353386030255337e-07  1.6469698082502789e-07  1.1196935764287201e-07  5.6617452953297507e-08  0.0000000000000000e+00  0.0000000000000000e+00  -2.7888285146400295e-09  -4.4213832464157314e-09  -3.8161876406357384e-09  -1.4175882267511365e-18  7.8457731753133737e-09  2.0344815421706386e-08  3.7893429242894501e-08  6.0637197539217709e-08  8.8457763953983309e-08  1.2097032316204416e-07  1.5753199327671969e-07  1.9726081685087909e-07  2.3906472081024641e-07  2.8167937504691004e-07  3.2371353930125151e-07  3.6370019182387211e-07  4.0015150254577042e-07  4.3161555702249447e-07  4.5673266135672830e-07  4.7428906568380228e-07  4.8326603449257171e-07  4.8288236275475806e-07  4.7262868122486745e-07  4.5229220323554835e-07  4.2197092724835111e-07  3.8207671050504659e-07  3.3332705329150897e-07  2.7672586134325416e-07  2.1353386030255488e-07  1.4522968181318894e-07  7.3462861587135750e-08  0.0000000000000000e+00  0.0000000000000000e+00  -5.4467814009384427e-09  -9.4476801363732758e-09  -1.0652927566779773e-08  -7.8457731788018260e-09  -2.1462052053617063e-18  1.3670178126951703e-08  3.3669848377842751e-08  6.0194405048536222e-08  9.3113040600215640e-08  1.3196544782835419e-07  1.7597194532735303e-07  2.2405671511395998e-07  2.7488332920264643e-07  3.2690126091093027e-07  3.7840164528965227e-07  4.2758018797144087e-07  4.7260483701434112e-07  5.1168563901310752e-07  5.4314410638543000e-07  5.6547943105393816e-07  5.7742899054260347e-07  5.7802080165906721e-07  5.6661587651750568e-07  5.4293881420488817e-07  5.0709540422939244e-07  4.5957650743723451e-07  4.0124799602146763e-07  3.3332705329151204e-07  2.5734562910047821e-07  1.7510228731621340e-07  8.8604036843122635e-08  0.0000000000000000e+00  0.0000000000000000e+00  -9.2643981939757038e-09  -1.6794727922589151e-08  -2.0974734379417370e-08  -2.0344815425812405e-08  -1.3670178132004159e-08  -2.9736183346850206e-18  2.1284778011286906e-08  5.0436965993372840e-08  8.7323374063567176e-08  1.3142065289846747e-07  1.8182697769114323e-07  2.3728921127893163e-07  2.9624457887506608e-07  3.5687531987866499e-07  4.1717427354740082e-07  4.7501892456614855e-07  5.2825109839208398e-07  5.7475926772346496e-07  6.1256031941335612e-07  6.3987764004246250e-07  6.5521250793674405e-07  6.5740602476822340e-07  6.4568917161607906e-07  6.1971901890234921e-07  5.7959963959383298e-07  5.2588684984277921e-07  4.5957650743723991e-07  3.8207671050505459e-07  2.9516483011667477e-07  2.0093085511158576e-07  1.0170900709830271e-07  0.0000000000000000e+00  0.0000000000000000e+00  -1.4336931981934104e-08  -2.6654808611153546e-08  -3.5073896952758058e-08  -3.7893429247576264e-08  -3.3669848383603806e-08  -2.1284778018068388e-08  -3.8664484435314343e-18  3.0502780267138258e-08  7.0099014034941468e-08  1.1821621715479723e-07  1.7384699735615649e-07  2.3557978865321852e-07  3.0164619179280776e-07  3.6998317193688360e-07  4.3830778345280572e-07  5.0420159920315657e-07  5.6520163713529267e-07  6.1889431516100851e-07  6.6300883645744598e-07  6.9550641646476860e-07  7.1466190974050724e-07  7.1913467387049366e-07  7.0802590811662204e-07  6.8092021092817675e-07  6.3790969315988443e-07  5.7959963959384134e-07  5.0709540422940578e-07  4.2197092724836609e-07  3.2621994598165240e-07  2.2219161341492923e-07  1.1251281696846137e-07  0.0000000000000000e+00  0.0000000000000000e+00  -2.0695680465147957e-08  -3.9092823143986811e-08  -5.3052910679064894e-08  -6.0637197544427742e-08  -6.0194405054947480e-08  -5.0436966000919851e-08  -3.0502780275744238e-08  -4.7888951028162062e-18  4.0966983007663924e-08  9.1791448315501087e-08  1.5137848677685355e-07  2.1817891528927638e-07  2.9024174384702004e-07  3.6528325001781526e-07  4.4077006733309107e-07  5.1401314437552147e-07  5.8226900177806383e-07  6.4284442154017811e-07  6.9320055837818274e-07  7.3105247191577755e-07  7.5446024112246129e-07  7.6190813233363381e-07  7.5236873754812304e-07  7.2534956334581144e-07  6.8092021092818882e-07  6.1971901890236922e-07  5.4293881420491199e-07  4.5229220323557234e-07  3.4995760522909106e-07  2.3850795566800192e-07  1.2082466602659949e-07  0.0000000000000000e+00  0.0000000000000000e+00  -2.8304700787850859e-08  -5.4039701348088071e-08  -7.4814570872780420e-08  -8.8457763959669057e-08  -9.3113040607212424e-08  -8.7323374071803579e-08  -7.0099014044333740e-08  -4.0966983018116940e-08  -5.7041849464319184e-18  5.2176379444960352e-08  1.1439877524085968e-07  1.8500265683941529e-07  2.6187934899077246e-07  3.4255124819951806e-07  4.2426241910351839e-07  5.0408113808570824e-07  5.7901048078724543e-07  6.4610272896983599e-07  7.0257321282644632e-07  7.4590921358184397e-07  7.7396972780781130e-07  7.8507223258905929e-07  7.7806307659008350e-07  7.5236873754813935e-07  7.0802590811664988e-07  6.4568917161611378e-07  5.6661587651754263e-07  4.7262868122490249e-07  3.6605708673383266e-07  2.4966007338207060e-07  1.2653268148861000e-07  0.0000000000000000e+00  0.0000000000000000e+00  -3.7060257700128676e-08  -7.1291257252773775e-08  -1.0006017891998757e-07  -1.2097032316814854e-07  -1.3196544783586626e-07  -1.3142065290731057e-07  -1.1821621716488151e-07  -9.1791448326724432e-08  -5.2176379457209593e-08  -6.5761175020553624e-18  6.3525383041989760e-08  1.3664313465436440e-07  2.1711320771727370e-07  3.0229271025753431e-07  3.8923308413836497e-07  4.7479020698437599e-07  5.5574322167301067e-07  6.2891755097265932e-07  6.9130738222392178e-07  7.4019291507764301e-07  7.7324785399869177e-07  7.8863298935325232e-07  7.8507223258908005e-07  7.6190813233367034e-07  7.1913467387054067e-07  6.5740602476827560e-07  5.7802080165911972e-07  4.8288236275480613e-07  3.7443654279648225e-07  2.5558910802635302e-07  1.2960598699247296e-07  0.0000000000000000e+00  0.0000000000000000e+00  -4.6793050587686226e-08  -9.0512579359846641e-08  -1.2829599275584230e-07  -1.5753199328318173e-07  -1.7597194533530540e-07  -1.8182697770050474e-07  -1.7384699736683210e-07  -1.5137848678873515e-07  -1.1439877525382749e-07  -6.3525383055913685e-08  -7.3705215905439992e-18  7.4352359586185573e-08  1.5718752272804438e-07  2.4572723783027827e-07  3.3686195062473957e-07  4.2726736837370932e-07  5.1353036537619313e-07  5.9227941361253346e-07  6.6031453782079267e-07  7.1473180152858865e-07  7.5303752938447525e-07  7.7324785399871718e-07  7.7396972780785694e-07  7.5446024112252154e-07  7.1466190974057638e-07  6.5521250793681647e-07  5.7742899054267346e-07  4.8326603449263439e-07  3.7525069839106190e-07  2.5639561196022980e-07  1.3009393136116586e-07  0.0000000000000000e+00  0.0000000000000000e+00  -5.7273154368187609e-08  -1.1124782653852754e-07  -1.5884772915279293e-07  -1.9726081685763463e-07  -2.2405671512227360e-07  -2.3728921128871862e-07  -2.3557978866437942e-07  -2.1817891530169825e-07  -1.8500265685297290e-07  -1.3664313466892174e-07  -7.4352359601597350e-08  -8.0565882890441858e-18  8.3993350280729167e-08  1.7474489048954615e-07  2.6901695256810290e-07  3.6333887353932849e-07  4.5413874552008809e-07  5.3788000024065598e-07  6.1119759007972074e-07  6.7102853373655187e-07  7.1473180152861840e-07  7.4019291507769754e-07  7.4590921358191777e-07  7.3105247191586447e-07  6.9550641646486241e-07  6.3987764004255695e-07  5.6547943105402731e-07  4.7428906568388073e-07  3.6888012605721791e-07  2.5233236354427037e-07  1.2812248824321417e-07  0.0000000000000000e+00  0.0000000000000000e+00  -6.8217502025389987e-08  -1.3293508722069265e-07  -1.9088260908263549e-07  -2.3906472081722871e-07  -2.7488332921123926e-07  -2.9624457888518193e-07  -3.0164619180434381e-07  -2.9024174385985952e-07  -2.6187934900478598e-07  -2.1711320773232073e-07  -1.5718752274397474e-07  -8.3993350297384654e-08  -8.6080950418771994e-18  9.1836421311943422e-08  1.8818384265559982e-07  2.8546020916502153e-07  3.7996979207717536e-07  4.6804460691491203e-07  5.4618551524321654e-07  6.1119759007975420e-07  6.6031453782085556e-07  6.9130738222400850e-07  7.0257321282655093e-07  6.9320055837829847e-07  6.6300883645756626e-07  6.1256031941347407e-07  5.4314410638553948e-07  4.5673266135682343e-07  3.5591252718272621e-07  2.4379181521519222e-07  1.2388796158724550e-07  0.0000000000000000e+00  0.0000000000000000e+00  -7.9299636284964097e-08  -1.5492576013680596e-07  -2.2343814091899628e-07  -2.8167937505405058e-07  -3.2690126091971792e-07  -3.5687531988901028e-07  -3.6998317194868150e-07  -3.6528325003094628e-07  -3.4255124821385002e-07  -3.0229271027292331e-07  -2.4572723784657084e-07  -1.7474489050658049e-07  -9.1836421329551318e-08  -9.0043349923983905e-18  9.7372017590933808e-08  1.9662194408639274e-07  2.9396630562392947e-07  3.8564072830229007e-07  4.6804460691494877e-07  5.3788000024072575e-07  5.9227941361263161e-07  6.2891755097278002e-07  6.4610272896997257e-07  6.4284442154032380e-07  6.1889431516115611e-07  5.7475926772360715e-07  5.1168563901323776e-07  4.3161555702260665e-07  3.3711675981780124e-07  2.3128866624921065e-07  1.1764824149529187e-07  0.0000000000000000e+00  0.0000000000000000e+00  -9.0161368273235565e-08  -1.7650773635974117e-07  -2.5545657069609113e-07  -3.2371353930848067e-07  -3.7840164529854908e-07  -4.1717427355787476e-07  -4.3830778346475037e-07  -4.4077006734638563e-07  -4.2426241911802891e-07  -3.8923308415394587e-07  -3.3686195064123549e-07  -2.6901695258534992e-07  -1.8818384267342772e-07  -9.7372017609167582e-08  -9.2309024501733407e-18  1.0023503585624665e-07  1.9949869233758024e-07  2.9396630562396838e-07  3.7996979207725054e-07  4.5413874552019556e-07  5.1353036537632771e-07  5.5574322167316600e-07  5.7901048078741473e-07  5.8226900177823970e-07  5.6520163713546758e-07  5.2825109839225031e-07  4.7260483701449200e-07  4.0015150254589944e-07  3.1341063056827383e-07  2.1543824079276638e-07  1.0971195101139351e-07  0.0000000000000000e+00  0.0000000000000000e+00  -1.0042590529673666e-07  -1.9693151165195367e-07  -2.8582370416205873e-07  -3.6370019183111980e-07  -4.2758018798036066e-07  -4.7501892457664954e-07  -5.0420159921513224e-07  -5.1401314438885070e-07  -5.0408113810025678e-07  -4.7479020699999782e-07  -4.2726736839024864e-07  -3.6333887355662099e-07  -2.8546020918289652e-07  -1.9662194410467486e-07  -1.0023503587475753e-07  -9.2800992719417574e-18  1.0023503585628669e-07  1.9662194408647130e-07  2.8546020916513562e-07  3.6333887353947365e-07  4.2726736837388005e-07  4.7479020698456562e-07  5.0408113808590952e-07  5.1401314437572667e-07  5.0420159920335785e-07  4.7501892456633808e-07  4.2758018797161149e-07  3.6370019182401717e-07  2.8582370415667102e-07  1.9693151164833279e-07  1.0042590529491747e-07  0.0000000000000000e+00  0.0000000000000000e+00  -1.0971195101320361e-07  -2.1543824079636920e-07  -3.1341063057363470e-07  -4.0015150255296687e-07  -4.7260483702319791e-07  -5.2825109840251095e-07  -5.6520163714718417e-07  -5.8226900179129936e-07  -5.7901048080169169e-07  -5.5574322168852292e-07  -5.1353036539261657e-07  -4.5413874553725957e-07  -3.7996979209492536e-07  -2.9396630564208387e-07  -1.9949869235596194e-07  -1.0023503587471748e-07  -9.1511871997038387e-18  9.7372017591051294e-08  1.8818384265575170e-07  2.6901695256828437e-07  3.3686195062494487e-07  3.8923308413858699e-07  4.2426241910374968e-07  4.4077006733332359e-07  4.3830778345303146e-07  4.1717427354761174e-07  3.7840164528984095e-07  3.2371353930141128e-07  2.5545657069072857e-07  1.7650773635613712e-07  9.0161368271424807e-08  0.0000000000000000e+00  0.0000000000000000e+00  -1.1764824149707544e-07  -2.3128866625276073e-07  -3.3711675982308371e-07  -4.3161555702957079e-07  -5.1168563902181661e-07  -5.7475926773371818e-07  -6.1889431517270191e-07  -6.4284442155319330e-07  -6.4610272898404189e-07  -6.2891755098791364e-07  -5.9227941362868384e-07  -5.3788000025754211e-07  -4.6804460693236726e-07  -3.8564072832014309e-07  -2.9396630564204496e-07  -1.9662194410459632e-07  -9.7372017609050123e-08  -8.8502218761543593e-18  9.1836421312130484e-08  1.7474489048976114e-07  2.4572723783051501e-07  3.0229271025778566e-07  3.4255124819977625e-07  3.6528325001807217e-07  3.6998317193713094e-07  3.5687531987889469e-07  3.2690126091113467e-07  2.8167937504708246e-07  2.2343814091371048e-07  1.5492576013325345e-07  7.9299636283179200e-08  0.0000000000000000e+00  0.0000000000000000e+00  -1.2388796158898539e-07  -2.4379181521865537e-07  -3.5591252718787945e-07  -4.5673266136361727e-07  -5.4314410639390870e-07  -6.1256031942333809e-07  -6.6300883646883011e-07  -6.9320055839085382e-07  -7.0257321284027709e-07  -6.9130738223877313e-07  -6.6031453783651667e-07  -6.1119759009616102e-07  -5.4618551526021099e-07  -4.6804460693233063e-07  -3.7996979209485024e-07  -2.8546020918278254e-07  -1.8818384267327589e-07  -9.1836421329364269e-08  -8.3897695514790783e-18  8.3993350280973497e-08  1.5718752272830839e-07  2.1711320771755009e-07  2.6187934899105335e-07  2.9024174384729723e-07  3.0164619179307293e-07  2.9624457887531108e-07  2.7488332920286359e-07  2.3906472081042905e-07  1.9088260907747738e-07  1.3293508721722593e-07  6.8217502023648170e-08  0.0000000000000000e+00  0.0000000000000000e+00  -1.2812248824489362e-07  -2.5233236354761329e-07  -3.6888012606219232e-07  -4.7428906569043889e-07  -5.6547943106210631e-07  -6.3987764005207908e-07  -6.9550641647573609e-07  -7.3105247192798509e-07  -7.4590921359516864e-07  -7.4019291509195120e-07  -7.1473180154373762e-07  -6.7102853375239106e-07  -6.1119759009612756e-07  -5.3788000025747234e-07  -4.5413874553715215e-07  -3.6333887355647588e-07  -2.6901695258516844e-07  -1.7474489050636550e-07  -8.3993350297140311e-08  -7.7882721109254622e-18  7.4352359586471407e-08  1.3664313465466046e-07  1.8500265683971366e-07  2.1817891528956887e-07  2.3557978865349679e-07  2.3728921127918770e-07  2.2405671511418627e-07  1.9726081685106890e-07  1.5884772914781222e-07  1.1124782653518000e-07  5.7273154366505639e-08  0.0000000000000000e+00  0.0000000000000000e+00  -1.3009393136276871e-07  -2.5639561196342031e-07  -3.7525069839580962e-07  -4.8326603449889375e-07  -5.7742899055038443e-07  -6.5521250794590492e-07  -7.1466190975095507e-07  -7.5446024113409063e-07  -7.7396972782050504e-07  -7.7324785401232265e-07  -7.5303752939890710e-07  -7.1473180154370798e-07  -6.6031453783645399e-07  -5.9227941362858579e-07  -5.1353036539248211e-07  -4.2726736839007796e-07  -3.3686195064103029e-07  -2.4572723784633409e-07  -1.5718752274371073e-07  -7.4352359601311517e-08  -7.0692814544305982e-18  6.3525383042299152e-08  1.1439877524116943e-07  1.5137848677715554e-07  1.7384699735644263e-07  1.8182697769140560e-07  1.7597194532758432e-07  1.5753199327691327e-07  1.2829599275108703e-07  9.0512579356650547e-08  4.6793050586080324e-08  0.0000000000000000e+00  0.0000000000000000e+00  -1.2960598699398380e-07  -2.5558910802936041e-07  -3.7443654280095760e-07  -4.8288236276070646e-07  -5.7802080166638854e-07  -6.5740602477684312e-07  -7.1913467388032464e-07  -7.6190813234457652e-07  -7.8507223260100373e-07  -7.8863298936607862e-07  -7.7324785401229724e-07  -7.4019291509189677e-07  -6.9130738223868663e-07  -6.2891755098779304e-07  -5.5574322168836749e-07  -4.7479020699980819e-07  -3.8923308415372384e-07  -3.0229271027267195e-07  -2.1711320773204431e-07  -1.3664313466862570e-07  -6.3525383055604293e-08  -6.2604588254002741e-18  5.2176379445274687e-08  9.1791448315806244e-08  1.1821621715508534e-07  1.3142065289873089e-07  1.3196544782858588e-07  1.2097032316223779e-07  1.0006017891550356e-07  7.1291257249759952e-08  3.7060257698614327e-08  0.0000000000000000e+00  0.0000000000000000e+00  -1.2653268149001430e-07  -2.4966007338486602e-07  -3.6605708673799260e-07  -4.7262868123038719e-07  -5.6661587652429941e-07  -6.4568917162407790e-07  -7.0802590812574479e-07  -7.5236873755827770e-07  -7.7806307660116788e-07  -7.8507223260098287e-07  -7.7396972782045941e-07  -7.4590921359509495e-07  -7.0257321284017259e-07  -6.4610272898390531e-07  -5.7901048080152239e-07  -5.0408113810005550e-07  -4.2426241911779756e-07  -3.4255124821359173e-07  -2.6187934900450508e-07  -1.8500265685267451e-07  -1.1439877525351772e-07  -5.2176379456895258e-08  -5.3925271851480922e-18  4.0966983007965415e-08  7.0099014035225290e-08  8.7323374063826117e-08  9.3113040600442950e-08  8.8457763954172978e-08  7.4814570868610927e-08  5.4039701345285589e-08  2.8304700786442673e-08  0.0000000000000000e+00  0.0000000000000000e+00  -1.2082466602788375e-07  -2.3850795567055848e-07  -3.4995760523289561e-07  -4.5229220324058857e-07  -5.4293881421109184e-07  -6.1971901890965338e-07  -6.8092021093650743e-07  -7.2534956335508455e-07  -7.5236873755826150e-07  -7.6190813234454010e-07  -7.5446024113403039e-07  -7.3105247192789817e-07  -6.9320055839073831e-07  -6.4284442155304772e-07  -5.8226900179112349e-07  -5.1401314438864551e-07  -4.4077006734615301e-07  -3.6528325003068936e-07  -2.9024174385958233e-07  -2.1817891530140576e-07  -1.5137848678843310e-07  -9.1791448326419262e-08  -4.0966983017815455e-08  -4.4980914722543494e-18  3.0502780