<?xml version="1.0"?>
<VTKFile type="UnstructuredGrid"  version="0.1"  >
<UnstructuredGrid>
<Piece  NumberOfPoints="1089" NumberOfCells="2048">
<Points>
<DataArray  type="Float64"  NumberOfComponents="3"  format="ascii">0 0 0  0.03125 0 0  0.0625 0 0  0.09375 0 0  0.125 0 0  0.15625 0 0  0.1875 0 0  0.21875 0 0  0.25 0 0  0.28125 0 0  0.3125 0 0  0.34375 0 0  0.375 0 0  0.40625 0 0  0.4375 0 0  0.46875 0 0  0.5 0 0  0.53125 0 0  0.5625 0 0  0.59375 0 0  0.625 0 0  0.65625 0 0  0.6875 0 0  0.71875 0 0  0.75 0 0  0.78125 0 0  0.8125 0 0  0.84375 0 0  0.875 0 0  0.90625 0 0  0.9375 0 0  0.96875 0 0  1 0 0  0 0.03125 0  0.03125 0.03125 0  0.0625 0.03125 0  0.09375 0.03125 0  0.125 0.03125 0  0.15625 0.03125 0  0.1875 0.03125 0  0.21875 0.03125 0  0.25 0.03125 0  0.28125 0.03125 0  0.3125 0.03125 0  0.34375 0.03125 0  0.375 0.03125 0  0.40625 0.03125 0  0.4375 0.03125 0  0.46875 0.03125 0  0.5 0.03125 0  0.53125 0.03125 0  0.5625 0.03125 0  0.59375 0.03125 0  0.625 0.03125 0  0.65625 0.03125 0  0.6875 0.03125 0  0.71875 0.03125 0  0.75 0.03125 0  0.78125 0.03125 0  0.8125 0.03125 0  0.84375 0.03125 0  0.875 0.03125 0  0.90625 0.03125 0  0.9375 0.03125 0  0.96875 0.03125 0  1 0.03125 0  0 0.0625 0  0.03125 0.0625 0  0.0625 0.0625 0  0.09375 0.0625 0  0.125 0.0625 0  0.15625 0.0625 0  0.1875 0.0625 0  0.21875 0.0625 0  0.25 0.0625 0  0.28125 0.0625 0  0.3125 0.0625 0  0.34375 0.0625 0  0.375 0.0625 0  0.40625 0.0625 0  0.4375 0.0625 0  0.46875 0.0625 0  0.5 0.0625 0  0.53125 0.0625 0  0.5625 0.0625 0  0.59375 0.0625 0  0.625 0.0625 0  0.65625 0.0625 0  0.6875 0.0625 0  0.71875 0.0625 0  0.75 0.0625 0  0.78125 0.0625 0  0.8125 0.0625 0  0.84375 0.0625 0  0.875 0.0625 0  0.90625 0.0625 0  0.9375 0.0625 0  0.96875 0.0625 0  1 0.0625 0  0 0.09375 0  0.03125 0.09375 0  0.0625 0.09375 0  0.09375 0.09375 0  0.125 0.09375 0  0.15625 0.09375 0  0.1875 0.09375 0  0.21875 0.09375 0  0.25 0.09375 0  0.28125 0.09375 0  0.3125 0.09375 0  0.34375 0.09375 0  0.375 0.09375 0  0.40625 0.09375 0  0.4375 0.09375 0  0.46875 0.09375 0  0.5 0.09375 0  0.53125 0.09375 0  0.5625 0.09375 0  0.59375 0.09375 0  0.625 0.09375 0  0.65625 0.09375 0  0.6875 0.09375 0  0.71875 0.09375 0  0.75 0.09375 0  0.78125 0.09375 0  0.8125 0.09375 0  0.84375 0.09375 0  0.875 0.09375 0  0.90625 0.09375 0  0.9375 0.09375 0  0.96875 0.09375 0  1 0.09375 0  0 0.125 0  0.03125 0.125 0  0.0625 0.125 0  0.09375 0.125 0  0.125 0.125 0  0.15625 0.125 0  0.1875 0.125 0  0.21875 0.125 0  0.25 0.125 0  0.28125 0.125 0  0.3125 0.125 0  0.34375 0.125 0  0.375 0.125 0  0.40625 0.125 0  0.4375 0.125 0  0.46875 0.125 0  0.5 0.125 0  0.53125 0.125 0  0.5625 0.125 0  0.59375 0.125 0  0.625 0.125 0  0.65625 0.125 0  0.6875 0.125 0  0.71875 0.125 0  0.75 0.125 0  0.78125 0.125 0  0.8125 0.125 0  0.84375 0.125 0  0.875 0.125 0  0.90625 0.125 0  0.9375 0.125 0  0.96875 0.125 0  1 0.125 0  0 0.15625 0  0.03125 0.15625 0  0.0625 0.15625 0  0.09375 0.15625 0  0.125 0.15625 0  0.15625 0.15625 0  0.1875 0.15625 0  0.21875 0.15625 0  0.25 0.15625 0  0.28125 0.15625 0  0.3125 0.15625 0  0.34375 0.15625 0  0.375 0.15625 0  0.40625 0.15625 0  0.4375 0.15625 0  0.46875 0.15625 0  0.5 0.15625 0  0.53125 0.15625 0  0.5625 0.15625 0  0.59375 0.15625 0  0.625 0.15625 0  0.65625 0.15625 0  0.6875 0.15625 0  0.71875 0.15625 0  0.75 0.15625 0  0.78125 0.15625 0  0.8125 0.15625 0  0.84375 0.15625 0  0.875 0.15625 0  0.90625 0.15625 0  0.9375 0.15625 0  0.96875 0.15625 0  1 0.15625 0  0 0.1875 0  0.03125 0.1875 0  0.0625 0.1875 0  0.09375 0.1875 0  0.125 0.1875 0  0.15625 0.1875 0  0.1875 0.1875 0  0.21875 0.1875 0  0.25 0.1875 0  0.28125 0.1875 0  0.3125 0.1875 0  0.34375 0.1875 0  0.375 0.1875 0  0.40625 0.1875 0  0.4375 0.1875 0  0.46875 0.1875 0  0.5 0.1875 0  0.53125 0.1875 0  0.5625 0.1875 0  0.59375 0.1875 0  0.625 0.1875 0  0.65625 0.1875 0  0.6875 0.1875 0  0.71875 0.1875 0  0.75 0.1875 0  0.78125 0.1875 0  0.8125 0.1875 0  0.84375 0.1875 0  0.875 0.1875 0  0.90625 0.1875 0  0.9375 0.1875 0  0.96875 0.1875 0  1 0.1875 0  0 0.21875 0  0.03125 0.21875 0  0.0625 0.21875 0  0.09375 0.21875 0  0.125 0.21875 0  0.15625 0.21875 0  0.1875 0.21875 0  0.21875 0.21875 0  0.25 0.21875 0  0.28125 0.21875 0  0.3125 0.21875 0  0.34375 0.21875 0  0.375 0.21875 0  0.40625 0.21875 0  0.4375 0.21875 0  0.46875 0.21875 0  0.5 0.21875 0  0.53125 0.21875 0  0.5625 0.21875 0  0.59375 0.21875 0  0.625 0.21875 0  0.65625 0.21875 0  0.6875 0.21875 0  0.71875 0.21875 0  0.75 0.21875 0  0.78125 0.21875 0  0.8125 0.21875 0  0.84375 0.21875 0  0.875 0.21875 0  0.90625 0.21875 0  0.9375 0.21875 0  0.96875 0.21875 0  1 0.21875 0  0 0.25 0  0.03125 0.25 0  0.0625 0.25 0  0.09375 0.25 0  0.125 0.25 0  0.15625 0.25 0  0.1875 0.25 0  0.21875 0.25 0  0.25 0.25 0  0.28125 0.25 0  0.3125 0.25 0  0.34375 0.25 0  0.375 0.25 0  0.40625 0.25 0  0.4375 0.25 0  0.46875 0.25 0  0.5 0.25 0  0.53125 0.25 0  0.5625 0.25 0  0.59375 0.25 0  0.625 0.25 0  0.65625 0.25 0  0.6875 0.25 0  0.71875 0.25 0  0.75 0.25 0  0.78125 0.25 0  0.8125 0.25 0  0.84375 0.25 0  0.875 0.25 0  0.90625 0.25 0  0.9375 0.25 0  0.96875 0.25 0  1 0.25 0  0 0.28125 0  0.03125 0.28125 0  0.0625 0.28125 0  0.09375 0.28125 0  0.125 0.28125 0  0.15625 0.28125 0  0.1875 0.28125 0  0.21875 0.28125 0  0.25 0.28125 0  0.28125 0.28125 0  0.3125 0.28125 0  0.34375 0.28125 0  0.375 0.28125 0  0.40625 0.28125 0  0.4375 0.28125 0  0.46875 0.28125 0  0.5 0.28125 0  0.53125 0.28125 0  0.5625 0.28125 0  0.59375 0.28125 0  0.625 0.28125 0  0.65625 0.28125 0  0.6875 0.28125 0  0.71875 0.28125 0  0.75 0.28125 0  0.78125 0.28125 0  0.8125 0.28125 0  0.84375 0.28125 0  0.875 0.28125 0  0.90625 0.28125 0  0.9375 0.28125 0  0.96875 0.28125 0  1 0.28125 0  0 0.3125 0  0.03125 0.3125 0  0.0625 0.3125 0  0.09375 0.3125 0  0.125 0.3125 0  0.15625 0.3125 0  0.1875 0.3125 0  0.21875 0.3125 0  0.25 0.3125 0  0.28125 0.3125 0  0.3125 0.3125 0  0.34375 0.3125 0  0.375 0.3125 0  0.40625 0.3125 0  0.4375 0.3125 0  0.46875 0.3125 0  0.5 0.3125 0  0.53125 0.3125 0  0.5625 0.3125 0  0.59375 0.3125 0  0.625 0.3125 0  0.65625 0.3125 0  0.6875 0.3125 0  0.71875 0.3125 0  0.75 0.3125 0  0.78125 0.3125 0  0.8125 0.3125 0  0.84375 0.3125 0  0.875 0.3125 0  0.90625 0.3125 0  0.9375 0.3125 0  0.96875 0.3125 0  1 0.3125 0  0 0.34375 0  0.03125 0.34375 0  0.0625 0.34375 0  0.09375 0.34375 0  0.125 0.34375 0  0.15625 0.34375 0  0.1875 0.34375 0  0.21875 0.34375 0  0.25 0.34375 0  0.28125 0.34375 0  0.3125 0.34375 0  0.34375 0.34375 0  0.375 0.34375 0  0.40625 0.34375 0  0.4375 0.34375 0  0.46875 0.34375 0  0.5 0.34375 0  0.53125 0.34375 0  0.5625 0.34375 0  0.59375 0.34375 0  0.625 0.34375 0  0.65625 0.34375 0  0.6875 0.34375 0  0.71875 0.34375 0  0.75 0.34375 0  0.78125 0.34375 0  0.8125 0.34375 0  0.84375 0.34375 0  0.875 0.34375 0  0.90625 0.34375 0  0.9375 0.34375 0  0.96875 0.34375 0  1 0.34375 0  0 0.375 0  0.03125 0.375 0  0.0625 0.375 0  0.09375 0.375 0  0.125 0.375 0  0.15625 0.375 0  0.1875 0.375 0  0.21875 0.375 0  0.25 0.375 0  0.28125 0.375 0  0.3125 0.375 0  0.34375 0.375 0  0.375 0.375 0  0.40625 0.375 0  0.4375 0.375 0  0.46875 0.375 0  0.5 0.375 0  0.53125 0.375 0  0.5625 0.375 0  0.59375 0.375 0  0.625 0.375 0  0.65625 0.375 0  0.6875 0.375 0  0.71875 0.375 0  0.75 0.375 0  0.78125 0.375 0  0.8125 0.375 0  0.84375 0.375 0  0.875 0.375 0  0.90625 0.375 0  0.9375 0.375 0  0.96875 0.375 0  1 0.375 0  0 0.40625 0  0.03125 0.40625 0  0.0625 0.40625 0  0.09375 0.40625 0  0.125 0.40625 0  0.15625 0.40625 0  0.1875 0.40625 0  0.21875 0.40625 0  0.25 0.40625 0  0.28125 0.40625 0  0.3125 0.40625 0  0.34375 0.40625 0  0.375 0.40625 0  0.40625 0.40625 0  0.4375 0.40625 0  0.46875 0.40625 0  0.5 0.40625 0  0.53125 0.40625 0  0.5625 0.40625 0  0.59375 0.40625 0  0.625 0.40625 0  0.65625 0.40625 0  0.6875 0.40625 0  0.71875 0.40625 0  0.75 0.40625 0  0.78125 0.40625 0  0.8125 0.40625 0  0.84375 0.40625 0  0.875 0.40625 0  0.90625 0.40625 0  0.9375 0.40625 0  0.96875 0.40625 0  1 0.40625 0  0 0.4375 0  0.03125 0.4375 0  0.0625 0.4375 0  0.09375 0.4375 0  0.125 0.4375 0  0.15625 0.4375 0  0.1875 0.4375 0  0.21875 0.4375 0  0.25 0.4375 0  0.28125 0.4375 0  0.3125 0.4375 0  0.34375 0.4375 0  0.375 0.4375 0  0.40625 0.4375 0  0.4375 0.4375 0  0.46875 0.4375 0  0.5 0.4375 0  0.53125 0.4375 0  0.5625 0.4375 0  0.59375 0.4375 0  0.625 0.4375 0  0.65625 0.4375 0  0.6875 0.4375 0  0.71875 0.4375 0  0.75 0.4375 0  0.78125 0.4375 0  0.8125 0.4375 0  0.84375 0.4375 0  0.875 0.4375 0  0.90625 0.4375 0  0.9375 0.4375 0  0.96875 0.4375 0  1 0.4375 0  0 0.46875 0  0.03125 0.46875 0  0.0625 0.46875 0  0.09375 0.46875 0  0.125 0.46875 0  0.15625 0.46875 0  0.1875 0.46875 0  0.21875 0.46875 0  0.25 0.46875 0  0.28125 0.46875 0  0.3125 0.46875 0  0.34375 0.46875 0  0.375 0.46875 0  0.40625 0.46875 0  0.4375 0.46875 0  0.46875 0.46875 0  0.5 0.46875 0  0.53125 0.46875 0  0.5625 0.46875 0  0.59375 0.46875 0  0.625 0.46875 0  0.65625 0.46875 0  0.6875 0.46875 0  0.71875 0.46875 0  0.75 0.46875 0  0.78125 0.46875 0  0.8125 0.46875 0  0.84375 0.46875 0  0.875 0.46875 0  0.90625 0.46875 0  0.9375 0.46875 0  0.96875 0.46875 0  1 0.46875 0  0 0.5 0  0.03125 0.5 0  0.0625 0.5 0  0.09375 0.5 0  0.125 0.5 0  0.15625 0.5 0  0.1875 0.5 0  0.21875 0.5 0  0.25 0.5 0  0.28125 0.5 0  0.3125 0.5 0  0.34375 0.5 0  0.375 0.5 0  0.40625 0.5 0  0.4375 0.5 0  0.46875 0.5 0  0.5 0.5 0  0.53125 0.5 0  0.5625 0.5 0  0.59375 0.5 0  0.625 0.5 0  0.65625 0.5 0  0.6875 0.5 0  0.71875 0.5 0  0.75 0.5 0  0.78125 0.5 0  0.8125 0.5 0  0.84375 0.5 0  0.875 0.5 0  0.90625 0.5 0  0.9375 0.5 0  0.96875 0.5 0  1 0.5 0  0 0.53125 0  0.03125 0.53125 0  0.0625 0.53125 0  0.09375 0.53125 0  0.125 0.53125 0  0.15625 0.53125 0  0.1875 0.53125 0  0.21875 0.53125 0  0.25 0.53125 0  0.28125 0.53125 0  0.3125 0.53125 0  0.34375 0.53125 0  0.375 0.53125 0  0.40625 0.53125 0  0.4375 0.53125 0  0.46875 0.53125 0  0.5 0.53125 0  0.53125 0.53125 0  0.5625 0.53125 0  0.59375 0.53125 0  0.625 0.53125 0  0.65625 0.53125 0  0.6875 0.53125 0  0.71875 0.53125 0  0.75 0.53125 0  0.78125 0.531
[...]
<PointData  Scalars="phi"> 
<DataArray  type="Float64"  Name="phi"  format="ascii">0.0000000000000000e+00  0.0000000000000000e+00  0.0000000000000000e+00  0.0000000000000000e+00  0.0000000000000000e+00  0.0000000000000000e+00  0.0000000000000000e+00  0.0000000000000000e+00  0.0000000000000000e+00  0.0000000000000000e+00  0.0000000000000000e+00  0.0000000000000000e+00  0.0000000000000000e+00  0.0000000000000000e+00  0.0000000000000000e+00  0.0000000000000000e+00  0.0000000000000000e+00  0.0000000000000000e+00  0.0000000000000000e+00  0.0000000000000000e+00  0.0000000000000000e+00  0.0000000000000000e+00  0.0000000000000000e+00  0.0000000000000000e+00  0.0000000000000000e+00  0.0000000000000000e+00  0.0000000000000000e+00  0.0000000000000000e+00  0.0000000000000000e+00  0.0000000000000000e+00  0.0000000000000000e+00  0.0000000000000000e+00  0.0000000000000000e+00  0.0000000000000000e+00  -5.3410219504437514e-16  5.4012398732337503e-05  2.1290261368163096e-04  5.2226046684847316e-04  1.0202263908509570e-03  1.7355890302996530e-03  2.6862479211166987e-03  3.8781109946003050e-03  5.3044761942948335e-03  6.9459262119414729e-03  8.7707447143286765e-03  1.0735841775611737e-02  1.2788156164120181e-02  1.4866483355257754e-02  1.6903661342184854e-02  1.8829032125800813e-02  2.0571085726387633e-02  2.2060186096647949e-02  2.3231274721707683e-02  2.4026448113163745e-02  2.4397309839779880e-02  2.4307006040312426e-02  2.3731865256531912e-02  2.2662578527426494e-02  2.1104873575722282e-02  1.9079657252453881e-02  1.6622623222702342e-02  1.3783348422522646e-02  1.0623937085514490e-02  7.2173323849585190e-03  3.6455633452267132e-03  0.0000000000000000e+00  0.0000000000000000e+00  -5.4012398734438300e-05  -2.0668537477696549e-15  2.6367507582593234e-04  8.2822991325236402e-04  1.7700835895635295e-03  3.1470470272002824e-03  4.9952489885812038e-03  7.3269310161130285e-03  1.0129207484961076e-02  1.3363847882919357e-02  1.6968097825566769e-02  2.0856514374080294e-02  2.4923751349753134e-02  2.9048192982202577e-02  3.3096300783655448e-02  3.6927510278286592e-02  4.0399492215597112e-02  4.3373578009659283e-02  4.5720141953822069e-02  4.7323733555735818e-02  4.8087762114262821e-02  4.7938552118657315e-02  4.6828611620799557e-02  4.4738985615076152e-02  4.1680601707369022e-02  3.7694554992937265e-02  3.2851322336070993e-02  2.7248943040702168e-02  2.1010254434437756e-02  1.4279329957945652e-02  7.2173323849585407e-03  0.0000000000000000e+00  0.0000000000000000e+00  -2.1290261368469887e-04  -2.6367507583197010e-04  -4.4089911000345400e-15  7.1500910824775490e-04  1.9962496550735222e-03  3.9309255010778685e-03  6.5739477091667090e-03  9.9446329844987483e-03  1.4024840753847878e-02  1.8758633039410170e-02  2.4053481445929465e-02  2.9782984921521399e-02  3.5791002732943070e-02  4.1897051546702362e-02  4.7902765739881087e-02  5.3599177982819983e-02  5.8774544358304551e-02  6.3222416076527760e-02  6.6749649079446582e-02  6.9184043936255588e-02  7.0381321399135860e-02  7.0231163356475376e-02  6.8662083810716895e-02  6.5644938666368668e-02  6.1194934977993470e-02  5.5372058088221404e-02  4.8279896836636152e-02  4.0062910599554843e-02  3.0902244458093905e-02  2.1010254434437863e-02  1.0623937085514575e-02  0.0000000000000000e+00  0.0000000000000000e+00  -5.2226046685241456e-04  -8.2822991326012040e-04  -7.1500910825907983e-04  -7.2686137255181425e-15  1.4704193834325595e-03  3.8133306651345787e-03  7.1031754561751651e-03  1.1367371103755394e-02  1.6583826164826437e-02  2.2680465923077146e-02  2.9536799861558896e-02  3.6987483280665034e-02  4.4827747293280255e-02  5.2820498233157230e-02  6.0704821892750824e-02  6.8205572489252270e-02  7.5043682985096574e-02  8.0946804038170214e-02  8.5659864572859540e-02  8.8955148316775312e-02  9.0641497614250457e-02  9.0572287787225036e-02  8.8651861078169608e-02  8.4840167064844818e-02  7.9155424202772273e-02  7.1674692235426107e-02  6.2532324617814189e-02  5.1916350293439391e-02  4.0062910599555135e-02  2.7248943040702505e-02  1.3783348422522856e-02  0.0000000000000000e+00  0.0000000000000000e+00  -1.0202263908556533e-03  -1.7700835895727699e-03  -1.9962496550870075e-03  -1.4704193834498558e-03  -1.0277946378702909e-14  2.5625181732486257e-03  6.3120001569067809e-03  1.1285221762676803e-02  1.7457768498184825e-02  2.4743413639902283e-02  3.2996014889320156e-02  4.2013870988163095e-02  5.1546383713693140e-02  6.1302780524116370e-02  7.0962572261689588e-02  8.0187351871815665e-02  8.8633486707591608e-02  9.5965220730851411e-02  1.0186768520613587e-01  1.0605931801585190e-01  1.0830321246759966e-01  1.0841695564461712e-01  1.0628057248228190e-01  1.0184226268997838e-01  9.5121700632707140e-02  8.6210760062382680e-02  7.5271622377049471e-02  6.2532324617814786e-02  4.8279896836636957e-02  3.2851322336071714e-02  1.6622623222702755e-02  0.0000000000000000e+00  0.0000000000000000e+00  -1.7355890303049645e-03  -3.1470470272107302e-03  -3.9309255010931054e-03  -3.8133306651541008e-03  -2.5625181732717921e-03  -1.3028503168767685e-14  3.9904837361528266e-03  9.4564911335358864e-03  1.6373170150070882e-02  2.4642475797385339e-02  3.4095359774319614e-02  4.4496863952317549e-02  5.5553936057035423e-02  6.6925679618491565e-02  7.8235654901104054e-02  8.9085766764734287e-02  9.9071212374401058e-02  1.0779591881364763e-01  1.1488787963335788e-01  1.2001380101335325e-01  1.2289249248526157e-01  1.2330648314590208e-01  1.2111141022246832e-01  1.1624281019243146e-01  1.0872004016915909e-01  9.8647165091851813e-02  8.6210760062383707e-02  7.1674692235427648e-02  5.5372058088222993e-02  3.7694554992938535e-02  1.9079657252454581e-02  0.0000000000000000e+00  0.0000000000000000e+00  -2.6862479211224696e-03  -4.9952489885925497e-03  -6.5739477091832409e-03  -7.1031754561963175e-03  -6.3120001569318337e-03  -3.9904837361809335e-03  -1.5108516331665915e-14  5.7193027125783452e-03  1.3144199942571952e-02  2.2167434382397350e-02  3.2600158324800455e-02  4.4177697736638134e-02  5.6568431259850671e-02  6.9385456027457854e-02  8.2200603198577332e-02  9.4560273779640824e-02  1.0600249318281983e-01  1.1607453387197697e-01  1.2435043127037769e-01  1.3044771980287068e-01  1.3404274347148068e-01  1.3488394767349393e-01  1.3280263406060072e-01  1.2772075521231940e-01  1.1965543707565240e-01  1.0872004016916072e-01  9.5121700632709708e-02  7.9155424202775160e-02  6.1194934977996142e-02  4.1680601707371041e-02  2.1104873575723368e-02  0.0000000000000000e+00  0.0000000000000000e+00  -3.8781109946063696e-03  -7.3269310161249443e-03  -9.9446329845160886e-03  -1.1367371103777543e-02  -1.1285221762702972e-02  -9.4564911335651477e-03  -5.7193027126096700e-03  -1.6145613475351186e-14  7.6819778547099152e-03  1.7212953475057594e-02  2.8387663388689106e-02  4.0915619451983111e-02  5.4430950121384922e-02  6.8505356690076263e-02  8.2663698005717129e-02  9.6401614115401282e-02  1.0920451873375128e-01  1.2056723551833953e-01  1.3001352599576194e-01  1.3711475867532444e-01  1.4150699936865602e-01  1.4290586084585827e-01  1.4111853347763581e-01  1.3605252422911890e-01  1.2772075521232176e-01  1.1624281019243533e-01  1.0184226268998300e-01  8.4840167064849453e-02  6.5644938666372707e-02  4.4738985615079122e-02  2.2662578527428066e-02  0.0000000000000000e+00  0.0000000000000000e+00  -5.3044761943010204e-03  -1.0129207484973222e-02  -1.4024840753865529e-02  -1.6583826164848929e-02  -1.7457768498211318e-02  -1.6373170150100379e-02  -1.3144199942603355e-02  -7.6819778547420545e-03  -1.5840677674878270e-14  9.7845228684013269e-03  2.1453482085497376e-02  3.4694750925096045e-02  4.9112877888187030e-02  6.4243195547829840e-02  7.9568813974486688e-02  9.4539854911247584e-02  1.0859419461518802e-01  1.2117892304292983e-01  1.3177169717162698e-01  1.3990116787988693e-01  1.4516569292269241e-01  1.4724961186477004e-01  1.4593644996874627e-01  1.4111853347763895e-01  1.3280263406060611e-01  1.2111141022247503e-01  1.0628057248228903e-01  8.8651861078176381e-02  6.8662083810722613e-02  4.6828611620803672e-02  2.3731865256534063e-02  0.0000000000000000e+00  0.0000000000000000e+00  -6.9459262119476138e-03  -1.3363847882931400e-02  -1.8758633039427635e-02  -2.2680465923099337e-02  -2.4743413639928311e-02  -2.4642475797414166e-02  -2.2167434382427818e-02  -1.7212953475088479e-02  -9.7845228684313792e-03  -1.3998998017497837e-14  1.1913325373934958e-02  2.5626046163584087e-02  4.0718065353317956e-02  5.6693709026819361e-02  7.2999954857598942e-02  8.9047084319255426e-02  1.0423097172154171e-01  1.1795615815230120e-01  1.2965882602014478e-01  1.3882879141239873e-01  1.4502966686830887e-01  1.4791641507816206e-01  1.4724961186477406e-01  1.4290586084586532e-01  1.3488394767350298e-01  1.2330648314591214e-01  1.0841695564462725e-01  9.0572287787234307e-02  7.0231163356483037e-02  4.7938552118662756e-02  2.4307006040315250e-02  0.0000000000000000e+00  0.0000000000000000e+00  -8.7707447143346058e-03  -1.6968097825578385e-02  -2.4053481445946268e-02  -2.9536799861580164e-02  -3.2996014889344977e-02  -3.4095359774346905e-02  -3.2600158324829029e-02  -2.8387663388717690e-02  -2.1453482085524691e-02  -1.1913325373959754e-02  -1.0554698070720263e-14  1.3944255310742225e-02  2.9479807455990881e-02  4.6085588955697442e-02  6.3178376695567473e-02  8.0134656563957005e-02  9.6314239966539220e-02  1.1108472897761212e-01  1.2384589227814209e-01  1.3405301538641193e-01  1.4123832597430377e-01  1.4502966686831376e-01  1.4516569292270121e-01  1.4150699936866765e-01  1.3404274347149400e-01  1.2289249248527552e-01  1.0830321246761315e-01  9.0641497614262517e-02  7.0381321399145672e-02  4.8087762114269739e-02  2.4397309839783450e-02  0.0000000000000000e+00  0.0000000000000000e+00  -1.0735841775617309e-02  -2.0856514374091181e-02  -2.9782984921537102e-02  -3.6987483280684817e-02  -4.2013870988186014e-02  -4.4496863952342508e-02  -4.4177697736663926e-02  -4.0915619452008445e-02  -3.4694750925119630e-02  -2.5626046163604654e-02  -1.3944255310758605e-02  -5.5808977019481465e-15  1.5752746137749966e-02  3.2773300357720636e-02  5.0454405897545927e-02  6.8145092516117889e-02  8.5175389465446200e-02  1.0088194509480815e-01  1.1463357075423608e-01  1.2585572781050169e-01  1.3405301538641765e-01  1.3882879141240925e-01  1.3990116787990114e-01  1.3711475867534118e-01  1.3044771980288875e-01  1.2001380101337145e-01  1.0605931801586908e-01  8.8955148316790425e-02  6.9184043936267745e-02  4.7323733555744332e-02  2.4026448113168120e-02  0.0000000000000000e+00  0.0000000000000000e+00  -1.2788156164125257e-02  -2.4923751349763035e-02  -3.5791002732957287e-02  -4.4827747293298040e-02  -5.1546383713713562e-02  -5.5553936057057371e-02  -5.6568431259872924e-02  -5.4430950121406196e-02  -4.9112877888206029e-02  -4.0718065353333416e-02  -2.9479807456001664e-02  -1.5752746137755048e-02  7.1714854252946799e-16  1.7223992415931703e-02  3.5294263228601228e-02  5.3538946495032734e-02  7.1264846649794600e-02  8.7783964903022288e-02  1.0243996626404854e-01  1.1463357075424255e-01  1.2384589227815418e-01  1.2965882602016146e-01  1.3177169717164711e-01  1.3001352599578420e-01  1.2435043127040082e-01  1.1488787963338060e-01  1.0186768520615697e-01  8.5659864572877872e-02  6.6749649079461196e-02  4.5720141953832241e-02  2.3231274721712897e-02  0.0000000000000000e+00  0.0000000000000000e+00  -1.4866483355262229e-02  -2.9048192982211271e-02  -4.1897051546714775e-02  -5.2820498233172614e-02  -6.1302780524133793e-02  -6.6925679618509926e-02  -6.9385456027475950e-02  -6.8505356690092820e-02  -6.4243195547843593e-02  -5.6693709026829062e-02  -4.6085588955701966e-02  -3.2773300357719005e-02  -1.7223992415923154e-02  8.0049758368026120e-15  1.8262396805477657e-02  3.6877143253584654e-02  5.5134585299341100e-02  7.2328646639097827e-02  8.7783964903029352e-02  1.0088194509482160e-01  1.1108472897763100e-01  1.1795615815232444e-01  1.2117892304295615e-01  1.2056723551836759e-01  1.1607453387200538e-01  1.0779591881367502e-01  9.5965220730876502e-02  8.0946804038191822e-02  6.3222416076544899e-02  4.3373578009671149e-02  2.2060186096654017e-02  0.0000000000000000e+00  0.0000000000000000e+00  -1.6903661342188639e-02  -3.3096300783662769e-02  -4.7902765739891454e-02  -6.0704821892763494e-02  -7.0962572261703633e-02  -7.8235654901118418e-02  -8.2200603198590821e-02  -8.2663698005728495e-02  -7.9568813974494723e-02  -7.2999954857602412e-02  -6.3178376695565308e-02  -5.0454405897537205e-02  -3.5294263228585226e-02  -1.8262396805453909e-02  1.5847975556574515e-14  1.8799462979859231e-02  3.7416785755405135e-02  5.5134585299348587e-02  7.1264846649809074e-02  8.5175389465466891e-02  9.6314239966565129e-02  1.0423097172157164e-01  1.0859419461522063e-01  1.0920451873378516e-01  1.0600249318285351e-01  9.9071212374433087e-02  8.8633486707620668e-02  7.5043682985121415e-02  5.8774544358324146e-02  4.0399492215610636e-02  2.0571085726394538e-02  0.0000000000000000e+00  0.0000000000000000e+00  -1.8829032125803852e-02  -3.6927510278292427e-02  -5.3599177982828136e-02  -6.8205572489262026e-02  -8.0187351871826115e-02  -8.9085766764744403e-02  -9.4560273779649442e-02  -9.6401614115407222e-02  -9.4539854911249652e-02  -8.9047084319252456e-02  -8.0134656563947970e-02  -6.8145092516101957e-02  -5.3538946495009232e-02  -3.6877143253553187e-02  -1.8799462979819662e-02  2.3754535960784175e-14  1.8799462979866944e-02  3.6877143253599788e-02  5.3538946495054703e-02  6.8145092516145839e-02  8.0134656563989867e-02  8.9047084319291953e-02  9.4539854911286358e-02  9.6401614115440806e-02  9.4560273779679571e-02  8.9085766764770785e-02  8.0187351871848514e-02  6.8205572489280206e-02  5.3599177982841931e-02  3.6927510278301698e-02  1.8829032125808512e-02  0.0000000000000000e+00  0.0000000000000000e+00  -2.0571085726389896e-02  -4.0399492215601407e-02  -5.8774544358310414e-02  -7.5043682985103319e-02  -8.8633486707598366e-02  -9.9071212374406817e-02  -1.0600249318282351e-01  -1.0920451873375171e-01  -1.0859419461518408e-01  -1.0423097172153231e-01  -9.6314239966523427e-02  -8.5175389465423204e-02  -7.1264846649763805e-02  -5.5134585299302208e-02  -3.7416785755358083e-02  -1.8799462979811950e-02  3.1203134027615262e-14  1.8262396805500278e-02  3.5294263228630468e-02  5.0454405897580872e-02  6.3178376695606997e-02  7.2999954857641700e-02  7.9568813974531236e-02  8.2663698005761899e-02  8.2200603198620784e-02  7.8235654901144661e-02  7.0962572261725906e-02  6.0704821892781577e-02  4.7902765739905172e-02  3.3096300783671991e-02  1.6903661342193278e-02  0.0000000000000000e+00  0.0000000000000000e+00  -2.2060186096649441e-02  -4.3373578009662045e-02  -6.3222416076531354e-02  -8.0946804038173975e-02  -9.5965220730854520e-02  -1.0779591881364911e-01  -1.1607453387197580e-01  -1.2056723551833462e-01  -1.2117892304292011e-01  -1.1795615815228566e-01  -1.1108472897758989e-01  -1.0088194509477852e-01  -8.7783964902984735e-02  -7.2328646639052113e-02  -5.5134585299294721e-02  -3.6877143253538053e-02  -1.8262396805431284e-02  3.7688230548830700e-14  1.7223992415967726e-02  3.2773300357762034e-02  4.6085588955743030e-02  5.6693709026867767e-02  6.4243195547879564e-02  6.8505356690125724e-02  6.9385456027505468e-02  6.6925679618535780e-02  6.1302780524155727e-02  5.2820498233190426e-02  4.1897051546728292e-02  2.9048192982220358e-02  1.4866483355266795e-02  0.0000000000000000e+00  0.0000000000000000e+00  -2.3231274721708429e-02  -4.5720141953823352e-02  -6.6749649079447970e-02  -8.5659864572860442e-02  -1.0186768520613548e-01  -1.1488787963335531e-01  -1.2435043127037197e-01  -1.3001352599575203e-01  -1.3177169717161191e-01  -1.2965882602012363e-01  -1.2384589227811406e-01  -1.1463357075420051e-01  -1.0243996626400501e-01  -8.7783964902977685e-02  -7.1264846649749344e-02  -5.3538946494987263e-02  -3.5294263228555979e-02  -1.7223992415887120e-02  4.2767156493484382e-14  1.5752746137797025e-02  2.9479807456041722e-02  4.0718065353371177e-02  4.9112877888241119e-02  5.4430950121438296e-02  5.6568431259901721e-02  5.5553936057082587e-02  5.1546383713734954e-02  4.4827747293315415e-02  3.5791002732970464e-02  2.4923751349771896e-02  1.2788156164129712e-02  0.0000000000000000e+00  0.0000000000000000e+00  -2.4026448113163804e-02  -4.7323733555735742e-02  -6.9184043936254977e-02  -8.8955148316773591e-02  -1.0605931801584835e-01  -1.2001380101334702e-01  -1.3044771980286088e-01  -1.3711475867531012e-01  -1.3990116787986717e-01  -1.3882879141237270e-01  -1.3405301538637890e-01  -1.2585572781046109e-01  -1.1463357075419404e-01  -1.0088194509476509e-01  -8.5175389465402498e-02  -6.8145092516073980e-02  -5.0454405897502240e-02  -3.2773300357677594e-02  -1.5752746137707982e-02  4.6102313955114194e-14  1.3944255310797274e-02  2.5626046163641104e-02  3.4694750925153506e-02  4.0915619452039434e-02  4.4177697736691723e-02  4.4496863952366850e-02  4.2013870988206664e-02  3.6987483280701582e-02  2.9782984921549824e-02  2.0856514374099733e-02  1.0735841775621608e-02  0.0000000000000000e+00  0.0000000000000000e+00  -2.4397309839779328e-02  -4.8087762114261537e-02  -7.0381321399133473e-02  -9.0641497614246447e-02  -1.0830321246759335e-01  -1.2289249248525219e-01  -1.3404274347146738e-01  -1.4150699936863798e-01  -1.4516569292266876e-01  -1.4502966686827887e-01  -1.4123832597426678e-01  -1.3405301538637321e-01  -1.2384589227810197e-01  -1.1108472897757099e-01  -9.6314239966497503e-02  -8.0134656563915080e-02  -6.3178376695525770e-02  -4.6085588955656356e-02  -2.9479807455950805e-02  -1.3944255310703545e-02  4.7466136820297536e-14  1.1913325373994546e-02  2.1453482085557030e-02  2.8387663388747264e-02  3.2600158324855556e-02  3.4095359774370143e-02  3.2996014889364690e-02  2.9536799861596168e-02  2.4053481445958411e-02  1.6968097825586548e-02  8.7707447143387102e-03  0.0000000000000000e+00  0.0000000000000000e+00  -2.4307006040311364e-02  -4.7938552118655026e-02  -7.0231163356471532e-02  -9.0572287787219138e-02  -1.0841695564460856e-01  -1.2330648314589014e-01  -1.3488394767347786e-01  -1.4290586084583731e-01  -1.4724961186474347e-01  -1.4791641507812917e-01  -1.4502966686827398e-01  -1.3882879141236221e-01  -1.2965882602010695e-01  -1.1795615815226243e-01  -1.0423097172150236e-01  -8.9047084319215916e-02  -7.2999954857559626e-02  -5.6693709026780621e-02  -4.0718065353280167e-02  -2.5626046163547623e-02  -1.1913325373900160e-02  4.6797234258229597e-14  9.7845228684618653e-03  1.7212953475116359e-02  2.2167434382452830e-02  2.4642475797436069e-02  2.4743413639946893e-02  2.2680465923114426e-02  1.8758633039439081e-02  1.3363847882939095e-02  6.9459262119514822e-03  0.0000000000000000e+00  0.0000000000000000e+00  -2.3731865256530451e-02  -4.6828611620796490e-02  -6.8662083810711913e-02  -8.8651861078162281e-02  -1.0628057248227166e-01  -1.2111141022245456e-01  -1.3280263406058274e-01  -1.4111853347761294e-01  -1.4593644996871785e-01  -1.4724961186473945e-01  -1.4516569292265999e-01  -1.3990116787985296e-01  -1.3177169717159182e-01  -1.2117892304289378e-01  -1.0859419461515143e-01  -9.4539854911210849e-02  -7.9568813974450134e-02  -6.4243195547793827e-02  -4.9112877888151898e-02  -3.4694750925062148e-02  -2.1453482085465027e-02  -9.7845228683708357e-03  4.4182364807247452e-14  7.6819778547679773e-03  1.3144199942626607e-02  1.6373170150120742e-02  1.7457768498228592e-02  1.6583826164862956e-02  1.4024840753876172e-02  1.0129207484980378e-02  5.3044761943046191e-03  0.0000000000000000e+00  0.0000000000000000e+00  -2.2662578527424759e-02  -4.4738985615072550e-02  -6.5644938666362923e-02  -8.4840167064836561e-02  -1.0184226268996710e-01  -1.1624281019241661e-01  -1.2772075521230039e-01  -1.3605252422909511e-01  -1.4111853347760980e-01  -1.4290586084583029e-01  -1.4150699936862635e-01  -1.3711475867529338e-01  -1.3001352599572974e-01  -1.2056723551830655e-01  -1.0920451873371782e-01  -9.6401614115367670e-02  -8.2663698005683670e-02  -6.8505356690043318e-02  -5.4430950121352788e-02  -4.0915619451952101e-02  -2.8387663388659515e-02  -1.7212953475029703e-02  -7.6819778546839898e-03  3.9857242360498287e-14  5.7193027126309403e-0