<?xml version="1.0"?>
<VTKFile type="UnstructuredGrid"  version="0.1"  >
<UnstructuredGrid>
<Piece  NumberOfPoints="1089" NumberOfCells="2048">
<Points>
<DataArray  type="Float64"  NumberOfComponents="3"  format="ascii">0 0 0  0.03125 0 0  0.0625 0 0  0.09375 0 0  0.125 0 0  0.15625 0 0  0.1875 0 0  0.21875 0 0  0.25 0 0  0.28125 0 0  0.3125 0 0  0.34375 0 0  0.375 0 0  0.40625 0 0  0.4375 0 0  0.46875 0 0  0.5 0 0  0.53125 0 0  0.5625 0 0  0.59375 0 0  0.625 0 0  0.65625 0 0  0.6875 0 0  0.71875 0 0  0.75 0 0  0.78125 0 0  0.8125 0 0  0.84375 0 0  0.875 0 0  0.90625 0 0  0.9375 0 0  0.96875 0 0  1 0 0  0 0.03125 0  0.03125 0.03125 0  0.0625 0.03125 0  0.09375 0.03125 0  0.125 0.03125 0  0.15625 0.03125 0  0.1875 0.03125 0  0.21875 0.03125 0  0.25 0.03125 0  0.28125 0.03125 0  0.3125 0.03125 0  0.34375 0.03125 0  0.375 0.03125 0  0.40625 0.03125 0  0.4375 0.03125 0  0.46875 0.03125 0  0.5 0.03125 0  0.53125 0.03125 0  0.5625 0.03125 0  0.59375 0.03125 0  0.625 0.03125 0  0.65625 0.03125 0  0.6875 0.03125 0  0.71875 0.03125 0  0.75 0.03125 0  0.78125 0.03125 0  0.8125 0.03125 0  0.84375 0.03125 0  0.875 0.03125 0  0.90625 0.03125 0  0.9375 0.03125 0  0.96875 0.03125 0  1 0.03125 0  0 0.0625 0  0.03125 0.0625 0  0.0625 0.0625 0  0.09375 0.0625 0  0.125 0.0625 0  0.15625 0.0625 0  0.1875 0.0625 0  0.21875 0.0625 0  0.25 0.0625 0  0.28125 0.0625 0  0.3125 0.0625 0  0.34375 0.0625 0  0.375 0.0625 0  0.40625 0.0625 0  0.4375 0.0625 0  0.46875 0.0625 0  0.5 0.0625 0  0.53125 0.0625 0  0.5625 0.0625 0  0.59375 0.0625 0  0.625 0.0625 0  0.65625 0.0625 0  0.6875 0.0625 0  0.71875 0.0625 0  0.75 0.0625 0  0.78125 0.0625 0  0.8125 0.0625 0  0.84375 0.0625 0  0.875 0.0625 0  0.90625 0.0625 0  0.9375 0.0625 0  0.96875 0.0625 0  1 0.0625 0  0 0.09375 0  0.03125 0.09375 0  0.0625 0.09375 0  0.09375 0.09375 0  0.125 0.09375 0  0.15625 0.09375 0  0.1875 0.09375 0  0.21875 0.09375 0  0.25 0.09375 0  0.28125 0.09375 0  0.3125 0.09375 0  0.34375 0.09375 0  0.375 0.09375 0  0.40625 0.09375 0  0.4375 0.09375 0  0.46875 0.09375 0  0.5 0.09375 0  0.53125 0.09375 0  0.5625 0.09375 0  0.59375 0.09375 0  0.625 0.09375 0  0.65625 0.09375 0  0.6875 0.09375 0  0.71875 0.09375 0  0.75 0.09375 0  0.78125 0.09375 0  0.8125 0.09375 0  0.84375 0.09375 0  0.875 0.09375 0  0.90625 0.09375 0  0.9375 0.09375 0  0.96875 0.09375 0  1 0.09375 0  0 0.125 0  0.03125 0.125 0  0.0625 0.125 0  0.09375 0.125 0  0.125 0.125 0  0.15625 0.125 0  0.1875 0.125 0  0.21875 0.125 0  0.25 0.125 0  0.28125 0.125 0  0.3125 0.125 0  0.34375 0.125 0  0.375 0.125 0  0.40625 0.125 0  0.4375 0.125 0  0.46875 0.125 0  0.5 0.125 0  0.53125 0.125 0  0.5625 0.125 0  0.59375 0.125 0  0.625 0.125 0  0.65625 0.125 0  0.6875 0.125 0  0.71875 0.125 0  0.75 0.125 0  0.78125 0.125 0  0.8125 0.125 0  0.84375 0.125 0  0.875 0.125 0  0.90625 0.125 0  0.9375 0.125 0  0.96875 0.125 0  1 0.125 0  0 0.15625 0  0.03125 0.15625 0  0.0625 0.15625 0  0.09375 0.15625 0  0.125 0.15625 0  0.15625 0.15625 0  0.1875 0.15625 0  0.21875 0.15625 0  0.25 0.15625 0  0.28125 0.15625 0  0.3125 0.15625 0  0.34375 0.15625 0  0.375 0.15625 0  0.40625 0.15625 0  0.4375 0.15625 0  0.46875 0.15625 0  0.5 0.15625 0  0.53125 0.15625 0  0.5625 0.15625 0  0.59375 0.15625 0  0.625 0.15625 0  0.65625 0.15625 0  0.6875 0.15625 0  0.71875 0.15625 0  0.75 0.15625 0  0.78125 0.15625 0  0.8125 0.15625 0  0.84375 0.15625 0  0.875 0.15625 0  0.90625 0.15625 0  0.9375 0.15625 0  0.96875 0.15625 0  1 0.15625 0  0 0.1875 0  0.03125 0.1875 0  0.0625 0.1875 0  0.09375 0.1875 0  0.125 0.1875 0  0.15625 0.1875 0  0.1875 0.1875 0  0.21875 0.1875 0  0.25 0.1875 0  0.28125 0.1875 0  0.3125 0.1875 0  0.34375 0.1875 0  0.375 0.1875 0  0.40625 0.1875 0  0.4375 0.1875 0  0.46875 0.1875 0  0.5 0.1875 0  0.53125 0.1875 0  0.5625 0.1875 0  0.59375 0.1875 0  0.625 0.1875 0  0.65625 0.1875 0  0.6875 0.1875 0  0.71875 0.1875 0  0.75 0.1875 0  0.78125 0.1875 0  0.8125 0.1875 0  0.84375 0.1875 0  0.875 0.1875 0  0.90625 0.1875 0  0.9375 0.1875 0  0.96875 0.1875 0  1 0.1875 0  0 0.21875 0  0.03125 0.21875 0  0.0625 0.21875 0  0.09375 0.21875 0  0.125 0.21875 0  0.15625 0.21875 0  0.1875 0.21875 0  0.21875 0.21875 0  0.25 0.21875 0  0.28125 0.21875 0  0.3125 0.21875 0  0.34375 0.21875 0  0.375 0.21875 0  0.40625 0.21875 0  0.4375 0.21875 0  0.46875 0.21875 0  0.5 0.21875 0  0.53125 0.21875 0  0.5625 0.21875 0  0.59375 0.21875 0  0.625 0.21875 0  0.65625 0.21875 0  0.6875 0.21875 0  0.71875 0.21875 0  0.75 0.21875 0  0.78125 0.21875 0  0.8125 0.21875 0  0.84375 0.21875 0  0.875 0.21875 0  0.90625 0.21875 0  0.9375 0.21875 0  0.96875 0.21875 0  1 0.21875 0  0 0.25 0  0.03125 0.25 0  0.0625 0.25 0  0.09375 0.25 0  0.125 0.25 0  0.15625 0.25 0  0.1875 0.25 0  0.21875 0.25 0  0.25 0.25 0  0.28125 0.25 0  0.3125 0.25 0  0.34375 0.25 0  0.375 0.25 0  0.40625 0.25 0  0.4375 0.25 0  0.46875 0.25 0  0.5 0.25 0  0.53125 0.25 0  0.5625 0.25 0  0.59375 0.25 0  0.625 0.25 0  0.65625 0.25 0  0.6875 0.25 0  0.71875 0.25 0  0.75 0.25 0  0.78125 0.25 0  0.8125 0.25 0  0.84375 0.25 0  0.875 0.25 0  0.90625 0.25 0  0.9375 0.25 0  0.96875 0.25 0  1 0.25 0  0 0.28125 0  0.03125 0.28125 0  0.0625 0.28125 0  0.09375 0.28125 0  0.125 0.28125 0  0.15625 0.28125 0  0.1875 0.28125 0  0.21875 0.28125 0  0.25 0.28125 0  0.28125 0.28125 0  0.3125 0.28125 0  0.34375 0.28125 0  0.375 0.28125 0  0.40625 0.28125 0  0.4375 0.28125 0  0.46875 0.28125 0  0.5 0.28125 0  0.53125 0.28125 0  0.5625 0.28125 0  0.59375 0.28125 0  0.625 0.28125 0  0.65625 0.28125 0  0.6875 0.28125 0  0.71875 0.28125 0  0.75 0.28125 0  0.78125 0.28125 0  0.8125 0.28125 0  0.84375 0.28125 0  0.875 0.28125 0  0.90625 0.28125 0  0.9375 0.28125 0  0.96875 0.28125 0  1 0.28125 0  0 0.3125 0  0.03125 0.3125 0  0.0625 0.3125 0  0.09375 0.3125 0  0.125 0.3125 0  0.15625 0.3125 0  0.1875 0.3125 0  0.21875 0.3125 0  0.25 0.3125 0  0.28125 0.3125 0  0.3125 0.3125 0  0.34375 0.3125 0  0.375 0.3125 0  0.40625 0.3125 0  0.4375 0.3125 0  0.46875 0.3125 0  0.5 0.3125 0  0.53125 0.3125 0  0.5625 0.3125 0  0.59375 0.3125 0  0.625 0.3125 0  0.65625 0.3125 0  0.6875 0.3125 0  0.71875 0.3125 0  0.75 0.3125 0  0.78125 0.3125 0  0.8125 0.3125 0  0.84375 0.3125 0  0.875 0.3125 0  0.90625 0.3125 0  0.9375 0.3125 0  0.96875 0.3125 0  1 0.3125 0  0 0.34375 0  0.03125 0.34375 0  0.0625 0.34375 0  0.09375 0.34375 0  0.125 0.34375 0  0.15625 0.34375 0  0.1875 0.34375 0  0.21875 0.34375 0  0.25 0.34375 0  0.28125 0.34375 0  0.3125 0.34375 0  0.34375 0.34375 0  0.375 0.34375 0  0.40625 0.34375 0  0.4375 0.34375 0  0.46875 0.34375 0  0.5 0.34375 0  0.53125 0.34375 0  0.5625 0.34375 0  0.59375 0.34375 0  0.625 0.34375 0  0.65625 0.34375 0  0.6875 0.34375 0  0.71875 0.34375 0  0.75 0.34375 0  0.78125 0.34375 0  0.8125 0.34375 0  0.84375 0.34375 0  0.875 0.34375 0  0.90625 0.34375 0  0.9375 0.34375 0  0.96875 0.34375 0  1 0.34375 0  0 0.375 0  0.03125 0.375 0  0.0625 0.375 0  0.09375 0.375 0  0.125 0.375 0  0.15625 0.375 0  0.1875 0.375 0  0.21875 0.375 0  0.25 0.375 0  0.28125 0.375 0  0.3125 0.375 0  0.34375 0.375 0  0.375 0.375 0  0.40625 0.375 0  0.4375 0.375 0  0.46875 0.375 0  0.5 0.375 0  0.53125 0.375 0  0.5625 0.375 0  0.59375 0.375 0  0.625 0.375 0  0.65625 0.375 0  0.6875 0.375 0  0.71875 0.375 0  0.75 0.375 0  0.78125 0.375 0  0.8125 0.375 0  0.84375 0.375 0  0.875 0.375 0  0.90625 0.375 0  0.9375 0.375 0  0.96875 0.375 0  1 0.375 0  0 0.40625 0  0.03125 0.40625 0  0.0625 0.40625 0  0.09375 0.40625 0  0.125 0.40625 0  0.15625 0.40625 0  0.1875 0.40625 0  0.21875 0.40625 0  0.25 0.40625 0  0.28125 0.40625 0  0.3125 0.40625 0  0.34375 0.40625 0  0.375 0.40625 0  0.40625 0.40625 0  0.4375 0.40625 0  0.46875 0.40625 0  0.5 0.40625 0  0.53125 0.40625 0  0.5625 0.40625 0  0.59375 0.40625 0  0.625 0.40625 0  0.65625 0.40625 0  0.6875 0.40625 0  0.71875 0.40625 0  0.75 0.40625 0  0.78125 0.40625 0  0.8125 0.40625 0  0.84375 0.40625 0  0.875 0.40625 0  0.90625 0.40625 0  0.9375 0.40625 0  0.96875 0.40625 0  1 0.40625 0  0 0.4375 0  0.03125 0.4375 0  0.0625 0.4375 0  0.09375 0.4375 0  0.125 0.4375 0  0.15625 0.4375 0  0.1875 0.4375 0  0.21875 0.4375 0  0.25 0.4375 0  0.28125 0.4375 0  0.3125 0.4375 0  0.34375 0.4375 0  0.375 0.4375 0  0.40625 0.4375 0  0.4375 0.4375 0  0.46875 0.4375 0  0.5 0.4375 0  0.53125 0.4375 0  0.5625 0.4375 0  0.59375 0.4375 0  0.625 0.4375 0  0.65625 0.4375 0  0.6875 0.4375 0  0.71875 0.4375 0  0.75 0.4375 0  0.78125 0.4375 0  0.8125 0.4375 0  0.84375 0.4375 0  0.875 0.4375 0  0.90625 0.4375 0  0.9375 0.4375 0  0.96875 0.4375 0  1 0.4375 0  0 0.46875 0  0.03125 0.46875 0  0.0625 0.46875 0  0.09375 0.46875 0  0.125 0.46875 0  0.15625 0.46875 0  0.1875 0.46875 0  0.21875 0.46875 0  0.25 0.46875 0  0.28125 0.46875 0  0.3125 0.46875 0  0.34375 0.46875 0  0.375 0.46875 0  0.40625 0.46875 0  0.4375 0.46875 0  0.46875 0.46875 0  0.5 0.46875 0  0.53125 0.46875 0  0.5625 0.46875 0  0.59375 0.46875 0  0.625 0.46875 0  0.65625 0.46875 0  0.6875 0.46875 0  0.71875 0.46875 0  0.75 0.46875 0  0.78125 0.46875 0  0.8125 0.46875 0  0.84375 0.46875 0  0.875 0.46875 0  0.90625 0.46875 0  0.9375 0.46875 0  0.96875 0.46875 0  1 0.46875 0  0 0.5 0  0.03125 0.5 0  0.0625 0.5 0  0.09375 0.5 0  0.125 0.5 0  0.15625 0.5 0  0.1875 0.5 0  0.21875 0.5 0  0.25 0.5 0  0.28125 0.5 0  0.3125 0.5 0  0.34375 0.5 0  0.375 0.5 0  0.40625 0.5 0  0.4375 0.5 0  0.46875 0.5 0  0.5 0.5 0  0.53125 0.5 0  0.5625 0.5 0  0.59375 0.5 0  0.625 0.5 0  0.65625 0.5 0  0.6875 0.5 0  0.71875 0.5 0  0.75 0.5 0  0.78125 0.5 0  0.8125 0.5 0  0.84375 0.5 0  0.875 0.5 0  0.90625 0.5 0  0.9375 0.5 0  0.96875 0.5 0  1 0.5 0  0 0.53125 0  0.03125 0.53125 0  0.0625 0.53125 0  0.09375 0.53125 0  0.125 0.53125 0  0.15625 0.53125 0  0.1875 0.53125 0  0.21875 0.53125 0  0.25 0.53125 0  0.28125 0.53125 0  0.3125 0.53125 0  0.34375 0.53125 0  0.375 0.53125 0  0.40625 0.53125 0  0.4375 0.53125 0  0.46875 0.53125 0  0.5 0.53125 0  0.53125 0.53125 0  0.5625 0.53125 0  0.59375 0.53125 0  0.625 0.53125 0  0.65625 0.53125 0  0.6875 0.53125 0  0.71875 0.53125 0  0.75 0.53125 0  0.78125 0.531
[...]
<PointData  Scalars="phi"> 
<DataArray  type="Float64"  Name="phi"  format="ascii">0.0000000000000000e+00  0.0000000000000000e+00  0.0000000000000000e+00  0.0000000000000000e+00  0.0000000000000000e+00  0.0000000000000000e+00  0.0000000000000000e+00  0.0000000000000000e+00  0.0000000000000000e+00  0.0000000000000000e+00  0.0000000000000000e+00  0.0000000000000000e+00  0.0000000000000000e+00  0.0000000000000000e+00  0.0000000000000000e+00  0.0000000000000000e+00  0.0000000000000000e+00  0.0000000000000000e+00  0.0000000000000000e+00  0.0000000000000000e+00  0.0000000000000000e+00  0.0000000000000000e+00  0.0000000000000000e+00  0.0000000000000000e+00  0.0000000000000000e+00  0.0000000000000000e+00  0.0000000000000000e+00  0.0000000000000000e+00  0.0000000000000000e+00  0.0000000000000000e+00  0.0000000000000000e+00  0.0000000000000000e+00  0.0000000000000000e+00  0.0000000000000000e+00  -1.5570555088776902e-18  5.5300819605428649e-08  2.1789867533335325e-07  5.3437004859018228e-07  1.0436628952813399e-06  1.7751600313469789e-06  2.7471129903972892e-06  3.9655187541625588e-06  5.4234902783215307e-06  7.1011507542953830e-06  8.9660603325111193e-06  1.0974162852185767e-05  1.3071219576713195e-05  1.5194677721418840e-05  1.7275904380101369e-05  1.9242701951191397e-05  2.1022009884747592e-05  2.2542689951607228e-05  2.3738288573640226e-05  2.4549670199772922e-05  2.4927420265556568e-05  2.4833924787187334e-05  2.4245045835660397e-05  2.3151327636697269e-05  2.1558686438998399e-05  1.9488558291705621e-05  1.6977502643679320e-05  1.4076287844717343e-05  1.0848523289009248e-05  7.3689728353829833e-06  3.7218575746302462e-06  0.0000000000000000e+00  0.0000000000000000e+00  -5.5300819611596135e-08  -6.1099554571985397e-18  2.6976952019882316e-07  8.4718539262456278e-07  1.8102788562419080e-06  3.2180535768351913e-06  5.1073528900249142e-06  7.4906125261943617e-06  1.0354597884681164e-05  1.3660184700039229e-05  1.7343200265825539e-05  2.1316300435220315e-05  2.5471816805369934e-05  2.9685470278385418e-05  3.3820812994512692e-05  3.7734231743477444e-05  4.1280323481152263e-05  4.4317438376551073e-05  4.6713178482598158e-05  4.8349640962187305e-05  4.9128203804020421e-05  4.8973668828429381e-05  4.7837600936543897e-05  4.5700733196427094e-05  4.2574343546393904e-05  3.8500549697234197e-05  3.3551513584972339e-05  2.7827595612709042e-05  2.1454553687643350e-05  1.4579946440832885e-05  7.3689728353830045e-06  0.0000000000000000e+00  0.0000000000000000e+00  -2.1789867534246624e-07  -2.6976952021688339e-07  -1.3347775057703768e-17  7.3122329462557056e-07  2.0412174472699730e-06  4.0189885363489156e-06  6.7205423073276676e-06  1.0165517998497635e-05  1.4335290128844801e-05  1.9172624776664617e-05  2.4582915561595840e-05  3.0436962441674891e-05  3.6575195845846140e-05  4.2813191850399152e-05  4.8948273225376859e-05  5.4766948164644588e-05  6.0052905021340246e-05  6.4595258692150831e-05  6.8196733314471926e-05  7.0681467103310644e-05  7.1902138446185902e-05  7.1746137328699953e-05  7.0140541889410422e-05  6.7055705130854640e-05  6.2507309967518073e-05  5.6556810075150268e-05  4.9310237479684884e-05  4.0915423348265783e-05  3.1557743044071824e-05  2.1454553687643459e-05  1.0848523289009333e-05  0.0000000000000000e+00  0.0000000000000000e+00  -5.3437004860208659e-07  -8.4718539264815826e-07  -7.3122329466045085e-07  -2.2787758765628446e-17  1.5033359607302475e-06  3.8982891744442090e-06  7.2607955360087252e-06  1.1618750321569258e-05  1.6949475158556456e-05  2.3179237137525558e-05  3.0184853056903031e-05  3.7797330222634242e-05  4.5807415488179422e-05  5.3972849375141697e-05  6.2027055031865981e-05  6.9688935044328763e-05  7.6673404896861457e-05  8.2702261900317875e-05  8.7514973831126391e-05  9.0878972938761450e-05  9.2599058355973725e-05  9.2525542654229277e-05  9.0560825114418400e-05  8.6664133483535879e-05  8.0854245338759408e-05  7.3210077032662962e-05  6.3869109468309994e-05  5.3023701965726442e-05  4.0915423348266074e-05  2.7827595612709377e-05  1.4076287844717554e-05  0.0000000000000000e+00  0.0000000000000000e+00  -1.0436628952958386e-06  -1.8102788562706478e-06  -2.0412174473124598e-06  -1.5033359607857610e-06  -3.3807084522258054e-17  2.6193556591462140e-06  6.4515112432357312e-06  1.1533906437029435e-05  1.7841477085267208e-05  2.5286023292546950e-05  3.3718149573105439e-05  4.2931717433647246e-05  5.2670652653790131e-05  6.2637857360923105e-05  7.2505894338576094e-05  8.1929041049906524e-05  9.0556256303158891e-05  9.8044565446701003e-05  1.0407235189983051e-04  1.0835204441851716e-04  1.1064171072531203e-04  1.1075510820863988e-04  1.0856979980008609e-04  1.0403301567227516e-04  9.7165026252140079e-05  8.8059885847037941e-05  7.6883505040395818e-05  6.3869109468310604e-05  4.9310237479685697e-05  3.3551513584973057e-05  1.6977502643679730e-05  0.0000000000000000e+00  0.0000000000000000e+00  -1.7751600313638361e-06  -3.2180535768686080e-06  -4.0189885363983163e-06  -3.8982891745087546e-06  -2.6193556592248212e-06  -4.5688110141131460e-17  4.0783962885113359e-06  9.6642743836031009e-06  1.6732113647393903e-05  2.5181634624926437e-05  3.4840037818691557e-05  4.5467208441034463e-05  5.6763701748588741e-05  6.8381214926872355e-05  7.9935154022571972e-05  9.1018821884434399e-05  1.0121868866312524e-04  1.1013016263094668e-04  1.1737325761690455e-04  1.2260755505659278e-04  1.2554588348368120e-04  1.2596618530206157e-04  1.2372110807468525e-04  1.1874494274332188e-04  1.1105763082680021e-04  1.0076567277961909e-04  8.8059885847038984e-05  7.3210077032664521e-05  5.6556810075151868e-05  3.8500549697235478e-05  1.9488558291706326e-05  0.0000000000000000e+00  0.0000000000000000e+00  -2.7471129904162373e-06  -5.1073528900624759e-06  -6.7205423073831940e-06  -7.2607955360812676e-06  -6.4515112433240682e-06  -4.0783962886140056e-06  -5.7667240605041079e-17  5.8446663508898202e-06  1.3431737859449456e-05  2.2651520301439181e-05  3.3310986298583615e-05  4.5139664367760292e-05  5.7798709868640633e-05  7.0892822760000536e-05  8.3984565686903286e-05  9.6610541556149004e-05  1.0829881606542216e-04  1.1858692048594905e-04  1.2703974530763588e-04  1.3326663710782184e-04  1.3693703914943695e-04  1.3779406968147338e-04  1.3566550865108819e-04  1.3047176057734566e-04  1.2223047490755547e-04  1.1105763082680185e-04  9.7165026252142667e-05  8.0854245338762308e-05  6.2507309967520756e-05  4.2574343546395937e-05  2.1558686438999490e-05  0.0000000000000000e+00  0.0000000000000000e+00  -3.9655187541833035e-06  -7.4906125262354843e-06  -1.0165517998558423e-05  -1.1618750321648666e-05  -1.1533906437126117e-05  -9.6642743837154446e-06  -5.8446663510159900e-06  -6.8989602514637103e-17  7.8497220575472090e-06  1.7588245547818910e-05  2.9005773902633104e-05  4.1805466694010210e-05  5.5613492896181692e-05  6.9992266310904864e-05  8.4456366211880867e-05  9.8490540933688657e-05  1.1156910982038810e-04  1.2317602284363886e-04  1.3282480947623802e-04  1.4007765014854487e-04  1.4456283477152595e-04  1.4598993219537641e-04  1.4416207980889504e-04  1.3898491048570876e-04  1.3047176057734801e-04  1.1874494274332576e-04  1.0403301567227978e-04  8.6664133483540541e-05  6.7055705130858719e-05  4.5700733196430083e-05  2.3151327636698851e-05  0.0000000000000000e+00  0.0000000000000000e+00  -5.4234902783437568e-06  -1.0354597884725227e-05  -1.4335290128909928e-05  -1.6949475158641522e-05  -1.7841477085370759e-05  -1.6732113647514198e-05  -1.3431737859584515e-05  -7.8497220576948536e-06  -7.8960359938383852e-17  9.9975650277131036e-06  2.1920056674367175e-05  3.5448532680660083e-05  5.0178947803231895e-05  6.5636566111397133e-05  8.1293320244307576e-05  9.6587459888631831e-05  1.1094474155572382e-04  1.2380035018786975e-04  1.3462071259027084e-04  1.4292436436052472e-04  1.4830106582268025e-04  1.5042842718209669e-04  1.4908539622381751e-04  1.4416207980889821e-04  1.3566550865109359e-04  1.2372110807469199e-04  1.0856979980009326e-04  9.0560825114425204e-05  7.0140541889416168e-05  4.7837600936548037e-05  2.4245045835662562e-05  0.0000000000000000e+00  0.0000000000000000e+00  -7.1011507543187687e-06  -1.3660184700085585e-05  -1.9172624776733128e-05  -2.3179237137615028e-05  -2.5286023292655837e-05  -2.5181634625052899e-05  -2.2651520301581110e-05  -1.7588245547973998e-05  -9.9975650278789069e-06  -8.6990247915269152e-17  1.2172158256750279e-05  2.6182319255355877e-05  4.1601265466343552e-05  5.7922589878699162e-05  7.4581316500971234e-05  9.0974997094435474e-05  1.0648648020345682e-04  1.2050748210573277e-04  1.3246205621700695e-04  1.4182905904017694e-04  1.4816274690481178e-04  1.5111070712710254e-04  1.5042842718210070e-04  1.4598993219538351e-04  1.3779406968148248e-04  1.2596618530207168e-04  1.1075510820865005e-04  9.2525542654238587e-05  7.1746137328707651e-05  4.8973668828434849e-05  2.4833924787190173e-05  0.0000000000000000e+00  0.0000000000000000e+00  -8.9660603325353343e-06  -1.7343200265873536e-05  -2.4582915561666767e-05  -3.0184853056995635e-05  -3.3718149573218114e-05  -3.4840037818822372e-05  -3.3310986298730369e-05  -2.9005773902793396e-05  -2.1920056674538442e-05  -1.2172158256929877e-05  -9.2632583630083668e-17  1.4246725392319881e-05  3.0118848732686737e-05  4.7084026627194094e-05  6.4546434464584116e-05  8.1869101393938627e-05  9.8398035196887507e-05  1.1348721422581607e-04  1.2652348821799784e-04  1.3695043118096956e-04  1.4429022764063062e-04  1.4816274690481669e-04  1.4830106582268908e-04  1.4456283477153764e-04  1.3693703914945037e-04  1.2554588348369521e-04  1.1064171072532560e-04  9.2599058355985868e-05  7.1902138446195782e-05  4.9128203804027387e-05  2.4927420265560163e-05  0.0000000000000000e+00  0.0000000000000000e+00  -1.0974162852210484e-05  -2.1316300435269301e-05  -3.0436962441747268e-05  -3.7797330222728723e-05  -4.2931717433762178e-05  -4.5467208441167840e-05  -4.5139664367909857e-05  -4.1805466694173484e-05  -3.5448532680834429e-05  -2.6182319255538572e-05  -1.4246725392508187e-05  -9.5611925557428727e-17  1.6094044666313774e-05  3.3483032445023554e-05  5.1546590722760100e-05  6.9619702509692412e-05  8.7017951184532665e-05  1.0306369158248046e-04  1.1711214377112945e-04  1.2857640702921232e-04  1.3695043118097531e-04  1.4182905904018751e-04  1.4292436436053903e-04  1.4007765014856173e-04  1.3326663710784003e-04  1.2260755505661108e-04  1.0835204441853444e-04  9.0878972938776670e-05  7.0681467103322882e-05  4.8349640962195863e-05  2.4549670199777326e-05  0.0000000000000000e+00  0.0000000000000000e+00  -1.3071219576738096e-05  -2.5471816805419278e-05  -3.6575195845919046e-05  -4.5807415488274560e-05  -5.2670652653905823e-05  -5.6763701748722945e-05  -5.7798709868791053e-05  -5.5613492896345800e-05  -5.0178947803407007e-05  -4.1601265466526911e-05  -3.0118848732875551e-05  -1.6094044666505323e-05  -9.5827798222672984e-17  1.7596862866463467e-05  3.6058082680458352e-05  5.4697298549351787e-05  7.2806368416867862e-05  8.9682466335383638e-05  1.0465511910585112e-04  1.1711214377113595e-04  1.2652348821801001e-04  1.3246205621702376e-04  1.3462071259029109e-04  1.3282480947626046e-04  1.2703974530765919e-04  1.1737325761692743e-04  1.0407235189985174e-04  8.7514973831144836e-05  6.8196733314486644e-05  4.6713178482608397e-05  2.3738288573645474e-05  0.0000000000000000e+00  0.0000000000000000e+00  -1.5194677721443622e-05  -2.9685470278434529e-05  -4.2813191850471692e-05  -5.3972849375236341e-05  -6.2637857361038139e-05  -6.8381214927005739e-05  -7.0892822760149952e-05  -6.9992266311067779e-05  -6.5636566111570836e-05  -5.7922589878880881e-05  -4.7084026627381037e-05  -3.3483032445212991e-05  -1.7596862866652775e-05  -9.3363952388062332e-17  1.8657543664026979e-05  3.7674915213790759e-05  5.6327159673810548e-05  7.3892981828461011e-05  8.9682466335390753e-05  1.0306369158249399e-04  1.1348721422583509e-04  1.2050748210575616e-04  1.2380035018789623e-04  1.2317602284366713e-04  1.1858692048597765e-04  1.1013016263097426e-04  9.8044565446726251e-05  8.2702261900339627e-05  6.4595258692168084e-05  4.4317438376563012e-05  2.2542689951613337e-05  0.0000000000000000e+00  0.0000000000000000e+00  -1.7275904380125750e-05  -3.3820812994561007e-05  -4.8948273225448207e-05  -6.2027055031959046e-05  -7.2505894338689163e-05  -7.9935154022703011e-05  -8.3984565687049992e-05  -8.4456366212040706e-05  -8.1293320244477864e-05  -7.4581316501149206e-05  -6.4546434464767008e-05  -5.1546590722945200e-05  -3.6058082680643066e-05  -1.8657543664208902e-05  -8.8472103451712514e-17  1.9206129280469805e-05  3.8226131645694823e-05  5.6327159673818090e-05  7.2806368416882431e-05  8.7017951184553482e-05  9.8398035196913582e-05  1.0648648020348694e-04  1.1094474155575665e-04  1.1156910982042219e-04  1.0829881606545607e-04  1.0121868866315750e-04  9.0556256303188137e-05  7.6673404896886475e-05  6.0052905021359965e-05  4.1280323481165883e-05  2.1022009884754537e-05  0.0000000000000000e+00  0.0000000000000000e+00  -1.9242701951215124e-05  -3.7734231743524451e-05  -5.4766948164713990e-05  -6.9688935044419267e-05  -8.1929041050016435e-05  -9.1018821884561712e-05  -9.6610541556291441e-05  -9.8490540933843739e-05  -9.6587459888796900e-05  -9.0974997094607808e-05  -8.1869101394115501e-05  -6.9619702509871183e-05  -5.4697298549529914e-05  -3.7674915213965905e-05  -1.9206129280639839e-05  -8.1528582319547882e-17  1.9206129280477567e-05  3.7674915213805985e-05  5.4697298549373891e-05  6.9619702509720547e-05  8.1869101393971708e-05  9.0974997094472228e-05  9.6587459888670862e-05  9.8490540933728434e-05  9.6610541556188008e-05  9.1018821884471140e-05  8.1929041049939592e-05  6.9688935044356885e-05  5.4766948164666671e-05  3.7734231743492650e-05  1.9242701951199145e-05  0.0000000000000000e+00  0.0000000000000000e+00  -2.1022009884770434e-05  -4.1280323481197521e-05  -6.0052905021407046e-05  -7.6673404896948532e-05  -9.0556256303264587e-05  -1.0121868866324761e-04  -1.0829881606555897e-04  -1.1156910982053690e-04  -1.1094474155588206e-04  -1.0648648020362184e-04  -9.8398035197056670e-05  -8.7017951184703386e-05  -7.2806368417037689e-05  -5.6327159673977231e-05  -3.8226131645856315e-05  -1.9206129280632080e-05  -7.3024161002391073e-17  1.8657543664049744e-05  3.6058082680487774e-05  5.1546590722795275e-05  6.4546434464623893e-05  7.4581316501014277e-05  8.1293320244352394e-05  8.4456366211925943e-05  8.3984565686947020e-05  7.9935154022612846e-05  7.2505894338612659e-05  6.2027055031896935e-05  4.8948273225401098e-05  3.3820812994529348e-05  1.7275904380109843e-05  0.0000000000000000e+00  0.0000000000000000e+00  -2.2542689951628994e-05  -4.4317438376594183e-05  -6.4595258692214460e-05  -8.2702261900400776e-05  -9.8044565446801590e-05  -1.1013016263106304e-04  -1.1858692048607905e-04  -1.2317602284378013e-04  -1.2380035018801980e-04  -1.2050748210588908e-04  -1.1348721422597609e-04  -1.0306369158264170e-04  -8.9682466335543761e-05  -7.3892981828617855e-05  -5.6327159673969696e-05  -3.7674915213950685e-05  -1.8657543664186144e-05  -6.3501297375213197e-17  1.7596862866499716e-05  3.3483032445065214e-05  4.7084026627239969e-05  5.7922589878747870e-05  6.5636566111447182e-05  6.9992266310954642e-05  7.0892822760048457e-05  6.8381214926916862e-05  6.2637857360962719e-05  5.3972849375175111e-05  4.2813191850425247e-05  2.9685470278403314e-05  1.5194677721427940e-05  0.0000000000000000e+00  0.0000000000000000e+00  -2.3738288573660744e-05  -4.6713178482638796e-05  -6.8196733314531882e-05  -8.7514973831204481e-05  -1.0407235189992520e-04  -1.1737325761701403e-04  -1.2703974530775810e-04  -1.3282480947637070e-04  -1.3462071259041165e-04  -1.3246205621715343e-04  -1.2652348821814757e-04  -1.1711214377128005e-04  -1.0465511910600041e-04  -8.9682466335536660e-05  -7.2806368417023133e-05  -5.4697298549507824e-05  -3.6058082680613643e-05  -1.7596862866616529e-05  -5.3522806414262545e-17  1.6094044666361120e-05  3.0118848732737894e-05  4.1601265466397119e-05  5.0178947803286328e-05  5.5613492896235407e-05  5.7798709868692004e-05  5.6763701748636202e-05  5.2670652653832219e-05  4.5807415488214807e-05  3.6575195845873720e-05  2.5471816805388819e-05  1.3071219576722790e-05  0.0000000000000000e+00  0.0000000000000000e+00  -2.4549670199792065e-05  -4.8349640962225205e-05  -7.0681467103366535e-05  -9.0878972938834228e-05  -1.0835204441860535e-04  -1.2260755505669467e-04  -1.3326663710793549e-04  -1.4007765014866815e-04  -1.4292436436065539e-04  -1.4182905904031268e-04  -1.3695043118110809e-04  -1.2857640702935142e-04  -1.1711214377127356e-04  -1.0306369158262819e-04  -8.7017951184682570e-05  -6.9619702509843062e-05  -5.1546590722910038e-05  -3.3483032445171330e-05  -1.6094044666457973e-05  -4.3620912077506532e-17  1.4246725392375269e-05  2.6182319255413248e-05  3.5448532680717905e-05  4.1805466694066879e-05  4.5139664367814210e-05  4.5467208441084078e-05  4.2931717433691095e-05  3.7797330222671023e-05  3.0436962441703494e-05  2.1316300435239882e-05  1.0974162852195701e-05  0.0000000000000000e+00  0.0000000000000000e+00  -2.4927420265574227e-05  -4.9128203804055386e-05  -7.1902138446237442e-05  -9.2599058356040797e-05  -1.1064171072539328e-04  -1.2554588348377501e-04  -1.3693703914954147e-04  -1.4456283477163920e-04  -1.4830106582280013e-04  -1.4816274690493617e-04  -1.4429022764075736e-04  -1.3695043118110235e-04  -1.2652348821813543e-04  -1.1348721422595708e-04  -9.8398035197030609e-05  -8.1869101394082432e-05  -6.4546434464727244e-05  -4.7084026627335169e-05  -3.0118848732824397e-05  -1.4246725392452799e-05  -3.4263028553917884e-17  1.2172158256810231e-05  2.1920056674427192e-05  2.9005773902691623e-05  3.3310986298639052e-05  3.4840037818742392e-05  3.3718149573150243e-05  3.0184853056940537e-05  2.4582915561624971e-05  1.7343200265845445e-05  8.9660603325212193e-06  0.0000000000000000e+00  0.0000000000000000e+00  -2.4833924787203431e-05  -4.8973668828461243e-05  -7.1746137328746926e-05  -9.2525542654290372e-05  -1.1075510820871383e-04  -1.2596618530214690e-04  -1.3779406968156835e-04  -1.4598993219547924e-04  -1.5042842718220541e-04  -1.5111070712721519e-04  -1.4816274690493126e-04  -1.4182905904030211e-04  -1.3246205621713665e-04  -1.2050748210586572e-04  -1.0648648020359174e-04  -9.0974997094571067e-05  -7.4581316501106176e-05  -5.7922589878832167e-05  -4.1601265466473345e-05  -2.6182319255481204e-05  -1.2172158256869926e-05  -2.5825249414373466e-17  9.9975650277740103e-06  1.7588245547878036e-05  2.2651520301495007e-05  2.5181634624977483e-05  2.5286023292591842e-05  2.3179237137563071e-05  1.9172624776693711e-05  1.3660184700059093e-05  7.1011507543054576e-06  0.0000000000000000e+00  0.0000000000000000e+00  -2.4245045835674885e-05  -4.7837600936572567e-05  -7.0140541889452665e-05  -9.0560825114473329e-05  -1.0856979980015255e-04  -1.2372110807476187e-04  -1.3566550865117341e-04  -1.4416207980898720e-04  -1.4908539622391484e-04  -1.5042842718220140e-04  -1.4830106582279130e-04  -1.4292436436064111e-04  -1.3462071259039143e-04  -1.2380035018799332e-04  -1.1094474155584924e-04  -9.6587459888757896e-05  -8.1293320244433032e-05  -6.5636566111520800e-05  -5.0178947803352566e-05  -3.5448532680776608e-05  -2.1920056674478421e-05  -9.9975650278180001e-06  -1.8572601921666246e-17  7.8497220576056254e-06  1.3431737859504450e-05  1.6732113647444074e-05  1.7841477085311253e-05  1.6949475158593207e-05  1.4335290128873275e-05  1.0354597884700591e-05  5.4234902783313800e-06  0.0000000000000000e+00  0.0000000000000000e+00  -2.3151327636710116e-05  -4.5700733196452512e-05  -6.7055705130892099e-05  -8.6664133483584546e-05  -1.0403301567233401e-04  -1.1874494274338969e-04  -1.3047176057742101e-04  -1.3898491048579015e-04  -1.4416207980898405e-04  -1.4598993219547217e-04  -1.4456283477162754e-04  -1.4007765014865131e-04  -1.3282480947634828e-04  -1.2317602284375192e-04  -1.1156910982050283e-04  -9.8490540933803976e-05  -8.4456366211995630e-05  -6.9992266311017987e-05  -5.5613492896292084e-05  -4.1805466694116807e-05  -2.9005773902734876e-05  -1.7588245547914868e-05  -7.8497220576364371e-06  -1.2644338372466573e-17  5.8446663