<?xml version="1.0"?>
<VTKFile type="UnstructuredGrid"  version="0.1"  >
<UnstructuredGrid>
<Piece  NumberOfPoints="1089" NumberOfCells="2048">
<Points>
<DataArray  type="Float64"  NumberOfComponents="3"  format="ascii">0 0 0  0.03125 0 0  0.0625 0 0  0.09375 0 0  0.125 0 0  0.15625 0 0  0.1875 0 0  0.21875 0 0  0.25 0 0  0.28125 0 0  0.3125 0 0  0.34375 0 0  0.375 0 0  0.40625 0 0  0.4375 0 0  0.46875 0 0  0.5 0 0  0.53125 0 0  0.5625 0 0  0.59375 0 0  0.625 0 0  0.65625 0 0  0.6875 0 0  0.71875 0 0  0.75 0 0  0.78125 0 0  0.8125 0 0  0.84375 0 0  0.875 0 0  0.90625 0 0  0.9375 0 0  0.96875 0 0  1 0 0  0 0.03125 0  0.03125 0.03125 0  0.0625 0.03125 0  0.09375 0.03125 0  0.125 0.03125 0  0.15625 0.03125 0  0.1875 0.03125 0  0.21875 0.03125 0  0.25 0.03125 0  0.28125 0.03125 0  0.3125 0.03125 0  0.34375 0.03125 0  0.375 0.03125 0  0.40625 0.03125 0  0.4375 0.03125 0  0.46875 0.03125 0  0.5 0.03125 0  0.53125 0.03125 0  0.5625 0.03125 0  0.59375 0.03125 0  0.625 0.03125 0  0.65625 0.03125 0  0.6875 0.03125 0  0.71875 0.03125 0  0.75 0.03125 0  0.78125 0.03125 0  0.8125 0.03125 0  0.84375 0.03125 0  0.875 0.03125 0  0.90625 0.03125 0  0.9375 0.03125 0  0.96875 0.03125 0  1 0.03125 0  0 0.0625 0  0.03125 0.0625 0  0.0625 0.0625 0  0.09375 0.0625 0  0.125 0.0625 0  0.15625 0.0625 0  0.1875 0.0625 0  0.21875 0.0625 0  0.25 0.0625 0  0.28125 0.0625 0  0.3125 0.0625 0  0.34375 0.0625 0  0.375 0.0625 0  0.40625 0.0625 0  0.4375 0.0625 0  0.46875 0.0625 0  0.5 0.0625 0  0.53125 0.0625 0  0.5625 0.0625 0  0.59375 0.0625 0  0.625 0.0625 0  0.65625 0.0625 0  0.6875 0.0625 0  0.71875 0.0625 0  0.75 0.0625 0  0.78125 0.0625 0  0.8125 0.0625 0  0.84375 0.0625 0  0.875 0.0625 0  0.90625 0.0625 0  0.9375 0.0625 0  0.96875 0.0625 0  1 0.0625 0  0 0.09375 0  0.03125 0.09375 0  0.0625 0.09375 0  0.09375 0.09375 0  0.125 0.09375 0  0.15625 0.09375 0  0.1875 0.09375 0  0.21875 0.09375 0  0.25 0.09375 0  0.28125 0.09375 0  0.3125 0.09375 0  0.34375 0.09375 0  0.375 0.09375 0  0.40625 0.09375 0  0.4375 0.09375 0  0.46875 0.09375 0  0.5 0.09375 0  0.53125 0.09375 0  0.5625 0.09375 0  0.59375 0.09375 0  0.625 0.09375 0  0.65625 0.09375 0  0.6875 0.09375 0  0.71875 0.09375 0  0.75 0.09375 0  0.78125 0.09375 0  0.8125 0.09375 0  0.84375 0.09375 0  0.875 0.09375 0  0.90625 0.09375 0  0.9375 0.09375 0  0.96875 0.09375 0  1 0.09375 0  0 0.125 0  0.03125 0.125 0  0.0625 0.125 0  0.09375 0.125 0  0.125 0.125 0  0.15625 0.125 0  0.1875 0.125 0  0.21875 0.125 0  0.25 0.125 0  0.28125 0.125 0  0.3125 0.125 0  0.34375 0.125 0  0.375 0.125 0  0.40625 0.125 0  0.4375 0.125 0  0.46875 0.125 0  0.5 0.125 0  0.53125 0.125 0  0.5625 0.125 0  0.59375 0.125 0  0.625 0.125 0  0.65625 0.125 0  0.6875 0.125 0  0.71875 0.125 0  0.75 0.125 0  0.78125 0.125 0  0.8125 0.125 0  0.84375 0.125 0  0.875 0.125 0  0.90625 0.125 0  0.9375 0.125 0  0.96875 0.125 0  1 0.125 0  0 0.15625 0  0.03125 0.15625 0  0.0625 0.15625 0  0.09375 0.15625 0  0.125 0.15625 0  0.15625 0.15625 0  0.1875 0.15625 0  0.21875 0.15625 0  0.25 0.15625 0  0.28125 0.15625 0  0.3125 0.15625 0  0.34375 0.15625 0  0.375 0.15625 0  0.40625 0.15625 0  0.4375 0.15625 0  0.46875 0.15625 0  0.5 0.15625 0  0.53125 0.15625 0  0.5625 0.15625 0  0.59375 0.15625 0  0.625 0.15625 0  0.65625 0.15625 0  0.6875 0.15625 0  0.71875 0.15625 0  0.75 0.15625 0  0.78125 0.15625 0  0.8125 0.15625 0  0.84375 0.15625 0  0.875 0.15625 0  0.90625 0.15625 0  0.9375 0.15625 0  0.96875 0.15625 0  1 0.15625 0  0 0.1875 0  0.03125 0.1875 0  0.0625 0.1875 0  0.09375 0.1875 0  0.125 0.1875 0  0.15625 0.1875 0  0.1875 0.1875 0  0.21875 0.1875 0  0.25 0.1875 0  0.28125 0.1875 0  0.3125 0.1875 0  0.34375 0.1875 0  0.375 0.1875 0  0.40625 0.1875 0  0.4375 0.1875 0  0.46875 0.1875 0  0.5 0.1875 0  0.53125 0.1875 0  0.5625 0.1875 0  0.59375 0.1875 0  0.625 0.1875 0  0.65625 0.1875 0  0.6875 0.1875 0  0.71875 0.1875 0  0.75 0.1875 0  0.78125 0.1875 0  0.8125 0.1875 0  0.84375 0.1875 0  0.875 0.1875 0  0.90625 0.1875 0  0.9375 0.1875 0  0.96875 0.1875 0  1 0.1875 0  0 0.21875 0  0.03125 0.21875 0  0.0625 0.21875 0  0.09375 0.21875 0  0.125 0.21875 0  0.15625 0.21875 0  0.1875 0.21875 0  0.21875 0.21875 0  0.25 0.21875 0  0.28125 0.21875 0  0.3125 0.21875 0  0.34375 0.21875 0  0.375 0.21875 0  0.40625 0.21875 0  0.4375 0.21875 0  0.46875 0.21875 0  0.5 0.21875 0  0.53125 0.21875 0  0.5625 0.21875 0  0.59375 0.21875 0  0.625 0.21875 0  0.65625 0.21875 0  0.6875 0.21875 0  0.71875 0.21875 0  0.75 0.21875 0  0.78125 0.21875 0  0.8125 0.21875 0  0.84375 0.21875 0  0.875 0.21875 0  0.90625 0.21875 0  0.9375 0.21875 0  0.96875 0.21875 0  1 0.21875 0  0 0.25 0  0.03125 0.25 0  0.0625 0.25 0  0.09375 0.25 0  0.125 0.25 0  0.15625 0.25 0  0.1875 0.25 0  0.21875 0.25 0  0.25 0.25 0  0.28125 0.25 0  0.3125 0.25 0  0.34375 0.25 0  0.375 0.25 0  0.40625 0.25 0  0.4375 0.25 0  0.46875 0.25 0  0.5 0.25 0  0.53125 0.25 0  0.5625 0.25 0  0.59375 0.25 0  0.625 0.25 0  0.65625 0.25 0  0.6875 0.25 0  0.71875 0.25 0  0.75 0.25 0  0.78125 0.25 0  0.8125 0.25 0  0.84375 0.25 0  0.875 0.25 0  0.90625 0.25 0  0.9375 0.25 0  0.96875 0.25 0  1 0.25 0  0 0.28125 0  0.03125 0.28125 0  0.0625 0.28125 0  0.09375 0.28125 0  0.125 0.28125 0  0.15625 0.28125 0  0.1875 0.28125 0  0.21875 0.28125 0  0.25 0.28125 0  0.28125 0.28125 0  0.3125 0.28125 0  0.34375 0.28125 0  0.375 0.28125 0  0.40625 0.28125 0  0.4375 0.28125 0  0.46875 0.28125 0  0.5 0.28125 0  0.53125 0.28125 0  0.5625 0.28125 0  0.59375 0.28125 0  0.625 0.28125 0  0.65625 0.28125 0  0.6875 0.28125 0  0.71875 0.28125 0  0.75 0.28125 0  0.78125 0.28125 0  0.8125 0.28125 0  0.84375 0.28125 0  0.875 0.28125 0  0.90625 0.28125 0  0.9375 0.28125 0  0.96875 0.28125 0  1 0.28125 0  0 0.3125 0  0.03125 0.3125 0  0.0625 0.3125 0  0.09375 0.3125 0  0.125 0.3125 0  0.15625 0.3125 0  0.1875 0.3125 0  0.21875 0.3125 0  0.25 0.3125 0  0.28125 0.3125 0  0.3125 0.3125 0  0.34375 0.3125 0  0.375 0.3125 0  0.40625 0.3125 0  0.4375 0.3125 0  0.46875 0.3125 0  0.5 0.3125 0  0.53125 0.3125 0  0.5625 0.3125 0  0.59375 0.3125 0  0.625 0.3125 0  0.65625 0.3125 0  0.6875 0.3125 0  0.71875 0.3125 0  0.75 0.3125 0  0.78125 0.3125 0  0.8125 0.3125 0  0.84375 0.3125 0  0.875 0.3125 0  0.90625 0.3125 0  0.9375 0.3125 0  0.96875 0.3125 0  1 0.3125 0  0 0.34375 0  0.03125 0.34375 0  0.0625 0.34375 0  0.09375 0.34375 0  0.125 0.34375 0  0.15625 0.34375 0  0.1875 0.34375 0  0.21875 0.34375 0  0.25 0.34375 0  0.28125 0.34375 0  0.3125 0.34375 0  0.34375 0.34375 0  0.375 0.34375 0  0.40625 0.34375 0  0.4375 0.34375 0  0.46875 0.34375 0  0.5 0.34375 0  0.53125 0.34375 0  0.5625 0.34375 0  0.59375 0.34375 0  0.625 0.34375 0  0.65625 0.34375 0  0.6875 0.34375 0  0.71875 0.34375 0  0.75 0.34375 0  0.78125 0.34375 0  0.8125 0.34375 0  0.84375 0.34375 0  0.875 0.34375 0  0.90625 0.34375 0  0.9375 0.34375 0  0.96875 0.34375 0  1 0.34375 0  0 0.375 0  0.03125 0.375 0  0.0625 0.375 0  0.09375 0.375 0  0.125 0.375 0  0.15625 0.375 0  0.1875 0.375 0  0.21875 0.375 0  0.25 0.375 0  0.28125 0.375 0  0.3125 0.375 0  0.34375 0.375 0  0.375 0.375 0  0.40625 0.375 0  0.4375 0.375 0  0.46875 0.375 0  0.5 0.375 0  0.53125 0.375 0  0.5625 0.375 0  0.59375 0.375 0  0.625 0.375 0  0.65625 0.375 0  0.6875 0.375 0  0.71875 0.375 0  0.75 0.375 0  0.78125 0.375 0  0.8125 0.375 0  0.84375 0.375 0  0.875 0.375 0  0.90625 0.375 0  0.9375 0.375 0  0.96875 0.375 0  1 0.375 0  0 0.40625 0  0.03125 0.40625 0  0.0625 0.40625 0  0.09375 0.40625 0  0.125 0.40625 0  0.15625 0.40625 0  0.1875 0.40625 0  0.21875 0.40625 0  0.25 0.40625 0  0.28125 0.40625 0  0.3125 0.40625 0  0.34375 0.40625 0  0.375 0.40625 0  0.40625 0.40625 0  0.4375 0.40625 0  0.46875 0.40625 0  0.5 0.40625 0  0.53125 0.40625 0  0.5625 0.40625 0  0.59375 0.40625 0  0.625 0.40625 0  0.65625 0.40625 0  0.6875 0.40625 0  0.71875 0.40625 0  0.75 0.40625 0  0.78125 0.40625 0  0.8125 0.40625 0  0.84375 0.40625 0  0.875 0.40625 0  0.90625 0.40625 0  0.9375 0.40625 0  0.96875 0.40625 0  1 0.40625 0  0 0.4375 0  0.03125 0.4375 0  0.0625 0.4375 0  0.09375 0.4375 0  0.125 0.4375 0  0.15625 0.4375 0  0.1875 0.4375 0  0.21875 0.4375 0  0.25 0.4375 0  0.28125 0.4375 0  0.3125 0.4375 0  0.34375 0.4375 0  0.375 0.4375 0  0.40625 0.4375 0  0.4375 0.4375 0  0.46875 0.4375 0  0.5 0.4375 0  0.53125 0.4375 0  0.5625 0.4375 0  0.59375 0.4375 0  0.625 0.4375 0  0.65625 0.4375 0  0.6875 0.4375 0  0.71875 0.4375 0  0.75 0.4375 0  0.78125 0.4375 0  0.8125 0.4375 0  0.84375 0.4375 0  0.875 0.4375 0  0.90625 0.4375 0  0.9375 0.4375 0  0.96875 0.4375 0  1 0.4375 0  0 0.46875 0  0.03125 0.46875 0  0.0625 0.46875 0  0.09375 0.46875 0  0.125 0.46875 0  0.15625 0.46875 0  0.1875 0.46875 0  0.21875 0.46875 0  0.25 0.46875 0  0.28125 0.46875 0  0.3125 0.46875 0  0.34375 0.46875 0  0.375 0.46875 0  0.40625 0.46875 0  0.4375 0.46875 0  0.46875 0.46875 0  0.5 0.46875 0  0.53125 0.46875 0  0.5625 0.46875 0  0.59375 0.46875 0  0.625 0.46875 0  0.65625 0.46875 0  0.6875 0.46875 0  0.71875 0.46875 0  0.75 0.46875 0  0.78125 0.46875 0  0.8125 0.46875 0  0.84375 0.46875 0  0.875 0.46875 0  0.90625 0.46875 0  0.9375 0.46875 0  0.96875 0.46875 0  1 0.46875 0  0 0.5 0  0.03125 0.5 0  0.0625 0.5 0  0.09375 0.5 0  0.125 0.5 0  0.15625 0.5 0  0.1875 0.5 0  0.21875 0.5 0  0.25 0.5 0  0.28125 0.5 0  0.3125 0.5 0  0.34375 0.5 0  0.375 0.5 0  0.40625 0.5 0  0.4375 0.5 0  0.46875 0.5 0  0.5 0.5 0  0.53125 0.5 0  0.5625 0.5 0  0.59375 0.5 0  0.625 0.5 0  0.65625 0.5 0  0.6875 0.5 0  0.71875 0.5 0  0.75 0.5 0  0.78125 0.5 0  0.8125 0.5 0  0.84375 0.5 0  0.875 0.5 0  0.90625 0.5 0  0.9375 0.5 0  0.96875 0.5 0  1 0.5 0  0 0.53125 0  0.03125 0.53125 0  0.0625 0.53125 0  0.09375 0.53125 0  0.125 0.53125 0  0.15625 0.53125 0  0.1875 0.53125 0  0.21875 0.53125 0  0.25 0.53125 0  0.28125 0.53125 0  0.3125 0.53125 0  0.34375 0.53125 0  0.375 0.53125 0  0.40625 0.53125 0  0.4375 0.53125 0  0.46875 0.53125 0  0.5 0.53125 0  0.53125 0.53125 0  0.5625 0.53125 0  0.59375 0.53125 0  0.625 0.53125 0  0.65625 0.53125 0  0.6875 0.53125 0  0.71875 0.53125 0  0.75 0.53125 0  0.78125 0.531
[...]
<PointData  Scalars="phi"> 
<DataArray  type="Float64"  Name="phi"  format="ascii">0.0000000000000000e+00  0.0000000000000000e+00  0.0000000000000000e+00  0.0000000000000000e+00  0.0000000000000000e+00  0.0000000000000000e+00  0.0000000000000000e+00  0.0000000000000000e+00  0.0000000000000000e+00  0.0000000000000000e+00  0.0000000000000000e+00  0.0000000000000000e+00  0.0000000000000000e+00  0.0000000000000000e+00  0.0000000000000000e+00  0.0000000000000000e+00  0.0000000000000000e+00  0.0000000000000000e+00  0.0000000000000000e+00  0.0000000000000000e+00  0.0000000000000000e+00  0.0000000000000000e+00  0.0000000000000000e+00  0.0000000000000000e+00  0.0000000000000000e+00  0.0000000000000000e+00  0.0000000000000000e+00  0.0000000000000000e+00  0.0000000000000000e+00  0.0000000000000000e+00  0.0000000000000000e+00  0.0000000000000000e+00  0.0000000000000000e+00  0.0000000000000000e+00  -3.5274968788905253e-21  1.1535622161981106e-13  4.5453157860253276e-13  1.1146835287045157e-12  2.1770566057289892e-12  3.7029426830912924e-12  5.7304140371261187e-12  8.2719802328270554e-12  1.1313275055306305e-11  1.4812835942346145e-11  1.8702994119240900e-11  2.2891849455195157e-11  2.7266261202127386e-11  3.1695745700280880e-11  3.6037136297239631e-11  4.0139830468624386e-11  4.3851425599739307e-11  4.7023528992497967e-11  4.9517520022342708e-11  5.1210043299626941e-11  5.1998021187609490e-11  5.1802991787405690e-11  5.0574603938259861e-11  4.8293133114054003e-11  4.4970920472501853e-11  4.0652681115512412e-11  3.5414677206465123e-11  2.9362810346937581e-11  2.2629768259638267e-11  1.5371506622111751e-11  7.7637086786965670e-12  0.0000000000000000e+00  0.0000000000000000e+00  -1.1535623565060005e-13  -1.3955486463214056e-20  5.6273294906666789e-13  1.7672090762601555e-12  3.7761997245521332e-12  6.7127851739827364e-12  1.0653819769221312e-11  1.5625244155821850e-11  2.1599451263437643e-11  2.8494828780724119e-11  3.6177513928670359e-11  4.4465308840410774e-11  5.3133619721807829e-11  6.1923203253668311e-11  7.0549432361436853e-11  7.8712733215354960e-11  8.6109798433702311e-11  9.2445149750419918e-11  9.7442608114955249e-11  1.0085623094035996e-10  1.0248029499566618e-10  1.0215793862005654e-10  9.9788127319273476e-11  9.5330670719583331e-11  8.8809094339007109e-11  8.0311254746526747e-11  6.9987680068971147e-11  5.8047719782256722e-11  4.4753701967501203e-11  3.0413430510765059e-11  1.5371506622111796e-11  0.0000000000000000e+00  0.0000000000000000e+00  -4.5453159946722546e-13  -5.6273299057798144e-13  -3.0872346539465478e-20  1.5253148128252020e-12  4.2579322592326979e-12  8.3835169261774686e-12  1.4018895501387325e-11  2.1205034981066385e-11  2.9903083043360779e-11  3.9993651053511015e-11  5.1279392293741853e-11  6.3490798469544991e-11  7.6295011152241202e-11  8.9307326309266333e-11  1.0210496393406243e-10  1.1424258506467983e-10  1.2526896861672461e-10  1.3474421314992808e-10  1.4225680578486572e-10  1.4743990291193443e-10  1.4998619506023545e-10  1.4966078034835312e-10  1.4631154546253426e-10  1.3987664745279763e-10  1.3038880051539050e-10  1.1797619559425004e-10  1.0286001303911368e-10  8.5348625239982113e-11  6.5828720910052198e-11  4.4753701967501423e-11  2.2629768259638442e-11  0.0000000000000000e+00  0.0000000000000000e+00  -1.1146835561975301e-12  -1.7672091309637828e-12  -1.5253148941979226e-12  -5.3622953454309500e-20  3.1359239226551575e-12  8.1317408345377926e-12  1.5145851199788458e-11  2.4236443918345581e-11  3.5356212430481430e-11  4.8351351595238197e-11  6.2964904107805488e-11  7.8844355123243975e-11  9.5553207425370204e-11  1.1258611335434124e-10  1.2938699977300792e-10  1.4536950398748322e-10  1.5993894630219841e-10  1.7251500235227713e-10  1.8255420795467431e-10  1.8957143216929686e-10  1.9315949050893294e-10  1.9300613846517990e-10  1.8890778319887083e-10  1.8077937473466515e-10  1.6866008266347539e-10  1.5271452466854005e-10  1.3322948272873639e-10  1.1060621392943517e-10  8.5348625239982708e-11  5.8047719782257400e-11  2.9362810346938008e-11  0.0000000000000000e+00  0.0000000000000000e+00  -2.1770566395820844e-12  -3.7761997919148191e-12  -4.2579323594410909e-12  -3.1359240547311493e-12  -8.1330197262493375e-20  5.4639151306845698e-12  1.3457702891935160e-11  2.4059461517726359e-11  3.7216907760927859e-11  5.2746058683029525e-11  7.0335278761638725e-11  8.9554567875114511e-11  1.0986976113188212e-10  1.3066111925213411e-10  1.5124561578758214e-10  1.7090208153521277e-10  1.8889825270105732e-10  2.0451869210696345e-10  2.1709251501595322e-10  2.2601985447465567e-10  2.3079604535672632e-10  2.3103258988874220e-10  2.2647408718221572e-10  2.1701046059958075e-10  2.0268399378173626e-10  1.8369088183489805e-10  1.6037721039257118e-10  1.3322948272873760e-10  1.0286001303911532e-10  6.9987680068972608e-11  3.5414677206465963e-11  0.0000000000000000e+00  0.0000000000000000e+00  -3.7029427229757137e-12  -6.7127852533505643e-12  -8.3835170442492971e-12  -8.1317409901632348e-12  -5.4639153223531696e-12  -1.1292781111468008e-19  8.5074400511434063e-12  2.0159452343401584e-11  3.4902801304659872e-11  5.2528306315023849e-11  7.2675511625780527e-11  9.4843543352346205e-11  1.1840776669691104e-10  1.4264163005711967e-10  1.6674287935569702e-10  1.8986315375647746e-10  2.1113983957336182e-10  2.2972896783491035e-10  2.4483789619094976e-10  2.5575651940202975e-10  2.6188580444177565e-10  2.6276254430868643e-10  2.5807936523246460e-10  2.4769919963970637e-10  2.3166364507660518e-10  2.1019485902397236e-10  1.8369088183490017e-10  1.5271452466854320e-10  1.1797619559425327e-10  8.0311254746529332e-11  4.0652681115513840e-11  0.0000000000000000e+00  0.0000000000000000e+00  -5.7304140826555379e-12  -1.0653819859825663e-11  -1.4018895636179490e-11  -1.5145851377457215e-11  -1.3457703110757723e-11  -8.5074403090019438e-12  -1.4720095570943374e-19  1.2191838449734000e-11  2.8018293843436735e-11  4.7250546423525563e-11  6.9485945550613229e-11  9.4160293976610838e-11  1.2056676963137328e-10  1.4788078578628211e-10  1.7518985825242342e-10  2.0152735142821424e-10  2.2590882129160325e-10  2.4736956878765157e-10  2.6500196555777691e-10  2.7799111761191573e-10  2.8564749125396019e-10  2.8743523710199416e-10  2.8299510811522853e-10  2.7216106996416522e-10  2.5496993898688743e-10  2.3166364507660849e-10  2.0268399378174150e-10  1.6866008266348126e-10  1.3038880051539593e-10  8.8809094339011245e-11  4.4970920472504070e-11  0.0000000000000000e+00  0.0000000000000000e+00  -8.2719802835611604e-12  -1.5625244256786598e-11  -2.1205035131275702e-11  -2.4236444116340304e-11  -2.4059461761588277e-11  -2.0159452630771864e-11  -1.2191838777835848e-11  -1.8283268103175331e-19  1.6374338170034886e-11  3.6688672558419719e-11  6.0505372201414017e-11  8.7205234842818181e-11  1.1600845762294534e-10  1.4600224586922239e-10  1.7617402319163634e-10  2.0544898655218883e-10  2.3273057828022704e-10  2.5694232997114973e-10  2.7706947537448192e-10  2.9219873301017902e-10  3.0155472424326453e-10  3.0453161642310778e-10  3.0071875870302726e-10  2.8991930344331947e-10  2.7216106996416998e-10  2.4769919963971428e-10  2.1701046059959013e-10  1.8077937473467458e-10  1.3987664745280588e-10  9.5330670719589406e-11  4.8293133114057209e-11  0.0000000000000000e+00  0.0000000000000000e+00  -1.1313275110754960e-11  -2.1599451373787449e-11  -2.9903083207536369e-11  -3.5356212646889960e-11  -3.7216908027474397e-11  -3.4902801618767551e-11  -2.8018294202071549e-11  -1.6374338569734920e-11  -2.1845436895511302e-19  2.0854688814977785e-11  4.5724730185835316e-11  7.3944817729955032e-11  1.0467212242968994e-10  1.3691635613118911e-10  1.6957598255270339e-10  2.0147920355385881e-10  2.3142816051995867e-10  2.5824466232479127e-10  2.8081568764442774e-10  2.9813691288872910e-10  3.0935258759695588e-10  3.1379021412567654e-10  3.1098868267512717e-10  3.0071875870303367e-10  2.8299510811523944e-10  2.5807936523247825e-10  2.2647408718223025e-10  1.8890778319888463e-10  1.4631154546254590e-10  9.9788127319281877e-11  5.0574603938264255e-11  0.0000000000000000e+00  0.0000000000000000e+00  -1.4812836001974067e-11  -2.8494828899393756e-11  -3.9993651230068167e-11  -4.8351351827971847e-11  -5.2746058969688385e-11  -5.2528306652838032e-11  -4.7250546809233298e-11  -3.6688672988298756e-11  -2.0854689284881258e-11  -2.5269819719735770e-19  2.5390839882284999e-11  5.4615711161024297e-11  8.6779275760357691e-11  1.2082518038655018e-10  1.5557489820942412e-10  1.8977173615902447e-10  2.2212833059549879e-10  2.5137581576527331e-10  2.7631278043560621e-10  2.9585213134399318e-10  3.0906405751966927e-10  3.1521343426788269e-10  3.1379021412568471e-10  3.0453161642312215e-10  2.8743523710201267e-10  2.6276254430870701e-10  2.3103258988876283e-10  1.9300613846519880e-10  1.4966078034836873e-10  1.0215793862006765e-10  5.1802991787411455e-11  0.0000000000000000e+00  0.0000000000000000e+00  -1.8702994182472777e-11  -3.6177514054514890e-11  -5.1279392480977215e-11  -6.2964904354619110e-11  -7.0335279065644777e-11  -7.2675511984042932e-11  -6.9485945959674037e-11  -6.0505372657326658e-11  -4.5724730684202665e-11  -2.5390840418301807e-11  -2.8424957222422258e-19  2.9718338839076528e-11  6.2827220431633547e-11  9.8216188506000088e-11  1.3464236672570876e-10  1.7077704865150235e-10  2.0525602166589678e-10  2.3673169957733205e-10  2.6392506514161511e-10  2.8567542662824939e-10  3.0098607202696688e-10  3.0906405751967919e-10  3.0935258759697382e-10  3.0155472424328826e-10  2.8564749125398743e-10  2.6188580444180409e-10  2.3079604535675383e-10  1.9315949050895755e-10  1.4998619506025548e-10  1.0248029499568030e-10  5.1998021187616780e-11  0.0000000000000000e+00  0.0000000000000000e+00  -2.2891849521421169e-11  -4.4465308972216557e-11  -6.3490798665652945e-11  -7.8844355381757497e-11  -8.9554568193536344e-11  -9.4843543727602493e-11  -9.4160294405080869e-11  -8.7205235320369207e-11  -7.3944818251982177e-11  -5.4615711722494948e-11  -2.9718339434578844e-11  -3.1189753464970499e-19  3.3571804025368836e-11  6.9844829700068767e-11  1.0752499381219891e-10  1.4522508632643341e-10  1.8151743002559750e-10  2.1498847279385407e-10  2.4429321862877108e-10  2.6820740622152405e-10  2.8567542662826107e-10  2.9585213134401463e-10  2.9813691288875810e-10  2.9219873301021325e-10  2.7799111761195264e-10  2.5575651940206687e-10  2.2601985447469074e-10  1.8957143216932769e-10  1.4743990291195922e-10  1.0085623094037732e-10  5.1210043299635872e-11  0.0000000000000000e+00  0.0000000000000000e+00  -2.7266261270709063e-11  -5.3133619858304178e-11  -7.6295011355331181e-11  -9.5553207693091526e-11  -1.0986976146165024e-10  -1.1840776708554404e-10  -1.2056677007512264e-10  -1.1600845811753206e-10  -1.0467212297034582e-10  -8.6779276341871348e-11  -6.2827221048400596e-11  -3.3571804671445995e-11  -3.3458115905005662e-19  3.6706647957563010e-11  7.5216324822144321e-11  1.1409729733723494e-10  1.5187239757788585e-10  1.8707554689861569e-10  2.1830815373797234e-10  2.4429321862878426e-10  2.6392506514163977e-10  2.7631278043564033e-10  2.8081568764446884e-10  2.7706947537452742e-10  2.6500196555782412e-10  2.4483789619099614e-10  2.1709251501599626e-10  1.8255420795471169e-10  1.4225680578489557e-10  9.7442608114976019e-11  4.9517520022353345e-11  0.0000000000000000e+00  0.0000000000000000e+00  -3.1695745770557234e-11  -6.1923203393539692e-11  -8.9307326517381046e-11  -1.1258611362869024e-10  -1.3066111959007050e-10  -1.4264163045538421e-10  -1.4788078624103463e-10  -1.4600224637607896e-10  -1.3691635668526418e-10  -1.2082518098250385e-10  -9.8216189138089494e-11  -6.9844830362203518e-11  -3.6706648643363896e-11  -3.5143022448976383e-19  3.8919203516454582e-11  7.8589000021650433e-11  1.1749714987942093e-10  1.5413904797908023e-10  1.8707554689863011e-10  2.1498847279388152e-10  2.3673169957737062e-10  2.5137581576532072e-10  2.5824466232484499e-10  2.5694232997120701e-10  2.4736956878770957e-10  2.2972896783496627e-10  2.0451869210701466e-10  1.7251500235232123e-10  1.3474421314996305e-10  9.2445149750444139e-11  4.7023528992510356e-11  0.0000000000000000e+00  0.0000000000000000e+00  -3.6037136368533539e-11  -7.0549432503335590e-11  -1.0210496414519667e-10  -1.2938700005134130e-10  -1.5124561613043087e-10  -1.6674287975975598e-10  -1.7518985871379788e-10  -1.7617402370587964e-10  -1.6957598311485980e-10  -1.5557489881407663e-10  -1.3464236736703140e-10  -1.0752499448401292e-10  -7.5216325517977648e-11  -3.8919204229604367e-11  -3.6179854957828441e-19  4.0063540397148718e-11  7.9738824725923179e-11  1.1749714987943621e-10  1.5187239757791539e-10  1.8151743002563974e-10  2.0525602166594964e-10  2.2212833059555987e-10  2.3142816052002526e-10  2.3273057828029619e-10  2.2590882129167198e-10  2.1113983957342724e-10  1.8889825270111665e-10  1.5993894630224912e-10  1.2526896861676460e-10  8.6109798433729931e-11  4.3851425599753401e-11  0.0000000000000000e+00  0.0000000000000000e+00  -4.0139830540249089e-11  -7.8712733357914162e-11  -1.1424258527679978e-10  -1.4536950426711979e-10  -1.7090208187967133e-10  -1.8986315416243876e-10  -2.0152735189176649e-10  -2.0544898706886552e-10  -2.0147920411868175e-10  -1.8977173676655176e-10  -1.7077704929588106e-10  -1.4522508700145590e-10  -1.1409729803639870e-10  -7.8589000738220854e-11  -4.0063541124223940e-11  -3.6528870682131755e-19  4.0063540397164454e-11  7.8589000021681310e-11  1.1409729733727978e-10  1.4522508632649046e-10  1.7077704865156942e-10  1.8977173615909899e-10  2.0147920355393793e-10  2.0544898655226951e-10  2.0152735142829337e-10  1.8986315375655199e-10  1.7090208153527982e-10  1.4536950398754024e-10  1.1424258506472463e-10  7.8712733215385798e-11  4.0139830468640108e-11  0.0000000000000000e+00  0.0000000000000000e+00  -4.3851425671005007e-11  -8.6109798575549065e-11  -1.2526896882778745e-10  -1.5993894658044519e-10  -1.8889825304380840e-10  -2.1113983997731580e-10  -2.2590882175286902e-10  -2.3273057879436123e-10  -2.3142816108200856e-10  -2.2212833120005008e-10  -2.0525602230712584e-10  -1.8151743069732764e-10  -1.5187239827364672e-10  -1.1749715059251103e-10  -7.9738825449474372e-11  -4.0063541124208197e-11  -3.6176722683731951e-19  3.8919203516500756e-11  7.5216324822203994e-11  1.0752499381227024e-10  1.3464236672578941e-10  1.5557489820951139e-10  1.6957598255279433e-10  1.7617402319172777e-10  1.7518985825251213e-10  1.6674287935577994e-10  1.5124561578765630e-10  1.2938699977307073e-10  1.0210496393411160e-10  7.0549432361470625e-11  3.6037136297256821e-11  0.0000000000000000e+00  0.0000000000000000e+00  -4.7023529062718525e-11  -9.2445149890188510e-11  -1.3474421335790165e-10  -1.7251500262645504e-10  -2.0451869244470685e-10  -2.2972896823296753e-10  -2.4736956924218949e-10  -2.5694233047779093e-10  -2.5824466287865616e-10  -2.5137581636102730e-10  -2.3673170020923698e-10  -2.1498847345582355e-10  -1.8707554758427387e-10  -1.5413904868182320e-10  -1.1749715059249572e-10  -7.8589000738189990e-11  -3.8919204229558206e-11  -3.5136965818812719e-19  3.6706647957636525e-11  6.9844829700153255e-11  9.8216188506093133e-11  1.2082518038664900e-10  1.3691635613129062e-10  1.4600224586932338e-10  1.4788078578637933e-10  1.4264163005720994e-10  1.3066111925221447e-10  1.1258611335440902e-10  8.9307326309319273e-11  6.1923203253704616e-11  3.1695745700299337e-11  0.0000000000000000e+00  0.0000000000000000e+00  -4.9517520090842181e-11  -9.7442608251300270e-11  -1.4225680598774805e-10  -1.8255420822214409e-10  -2.1709251534543774e-10  -2.4483789657927823e-10  -2.6500196600121128e-10  -2.7706947586875274e-10  -2.8081568818477551e-10  -2.7631278101682731e-10  -2.6392506575811204e-10  -2.4429321927460635e-10  -2.1830815440692600e-10  -1.8707554758425944e-10  -1.5187239827361717e-10  -1.1409729803635389e-10  -7.5216325517917974e-11  -3.6706648643290374e-11  -3.3449535619000959e-19  3.3571804025464860e-11  6.2827220431737307e-11  8.6779275760466336e-11  1.0467212242980035e-10  1.1600845762305431e-10  1.2056676963147750e-10  1.1840776669700733e-10  1.0986976113196751e-10  9.5553207425441987e-11  7.6295011152297127e-11  5.3133619721846144e-11  2.7266261202146850e-11  0.0000000000000000e+00  0.0000000000000000e+00  -5.1210043365746163e-11  -1.0085623107196930e-10  -1.4743990310777312e-10  -1.8957143242748448e-10  -2.2601985479271036e-10  -2.5575651977689218e-10  -2.7799111803997865e-10  -2.9219873348732208e-10  -2.9813691341035860e-10  -2.9585213190508659e-10  -2.8567542722340367e-10  -2.6820740684500787e-10  -2.4429321927459317e-10  -2.1498847345579613e-10  -1.8151743069728543e-10  -1.4522508700139885e-10  -1.0752499448394160e-10  -6.9844830362119029e-11  -3.3571804671349958e-11  -3.1179208537381873e-19  2.9718338839188870e-11  5.4615711161140658e-11  7.3944817730072311e-11  8.7205234842933146e-11  9.4160293976720232e-11  9.4843543352446837e-11  8.9554567875203459e-11  7.8844355123318589e-11  6.3490798469603010e-11  4.4465308840450472e-11  2.2891849455215310e-11  0.0000000000000000e+00  0.0000000000000000e+00  -5.1998021250712365e-11  -1.0248029512127375e-10  -1.4998619524714639e-10  -1.9315949075535436e-10  -2.3079604566029106e-10  -2.6188580479956513e-10  -2.8564749166253266e-10  -3.0155472469868826e-10  -3.0935258809484721e-10  -3.0906405805523490e-10  -3.0098607259505028e-10  -2.8567542722339203e-10  -2.6392506575808738e-10  -2.3673170020919847e-10  -2.0525602230707298e-10  -1.7077704929581400e-10  -1.3464236736695075e-10  -9.8216189137996462e-11  -6.2827221048296836e-11  -2.9718339434466509e-11  -2.8413118372752982e-19  2.5390839882406598e-11  4.5724730185957053e-11  6.0505372201532718e-11  6.9485945550725687e-11  7.2675511625883653e-11  7.0335278761729624e-11  6.2964904107881576e-11  5.1279392293800938e-11  3.6177513928710736e-11  1.8702994119261389e-11  0.0000000000000000e+00  0.0000000000000000e+00  -5.1802991846885379e-11  -1.0215793873845435e-10  -1.4966078052453874e-10  -1.9300613869746509e-10  -2.3103259017489717e-10  -2.6276254464596137e-10  -2.8743523748714574e-10  -3.0453161685243075e-10  -3.1379021459503929e-10  -3.1521343477276722e-10  -3.0906405805522498e-10  -2.9585213190506524e-10  -2.7631278101679334e-10  -2.5137581636097989e-10  -2.2212833119998899e-10  -1.8977173676647724e-10  -1.5557489881398937e-10  -1.2082518098240506e-10  -8.6779276341762703e-11  -5.4615711722378587e-11  -2.5390840418180208e-11  -2.5257413747850145e-19  2.0854688815101329e-11  3.6688672558539660e-11  4.7250546423638803e-11  5.2528306315127388e-11  5.2746058683120586e-11  4.8351351595314291e-11  3.9993651053570036e-11  2.8494828780764415e-11  1.4812835942366582e-11  0.0000000000000000e+00  0.0000000000000000e+00  -5.0574603993544593e-11  -9.9788127429323369e-11  -1.4631154562630077e-10  -1.8890778341478655e-10  -2.2647408744820953e-10  -2.5807936554598177e-10  -2.8299510847325531e-10  -3.0071875910212029e-10  -3.1098868311144648e-10  -3.1379021459503112e-10  -3.0935258809482932e-10  -2.9813691341032965e-10  -2.8081568818473452e-10  -2.5824466287860250e-10  -2.3142816108194202e-10  -2.0147920411860262e-10  -1.6957598311476887e-10  -1.3691635668516269e-10  -1.0467212297023541e-10  -7.3944818251864911e-11  -4.5724730684080927e-11  -2.0854689284757718e-11  -2.1833188012767939e-19  1.6374338170153379e-11  2.8018293843548288e-11  3.4902801304761641e-11  3.7216907761017201e-11  3.5356212430555980e-11  2.9903083043418540e-11  2.1599451263477053e-11  1.1313275055326283e-11  0.0000000000000000e+00  0.0000000000000000e+00  -4.8293133164612659e-11  -9.5330670820227986e-11  -1.3987664760257147e-10  -1.8077937493213655e-10  -2.1701046084285704e-10  -2.4769919992645231e-10  -2.7216107029162545e-10  -2.8991930380834538e-10  -3.0071875910211393e-10  -3.0453161685241643e-10  -3.0155472469866458e-10  -2.9219873348728796e-10  -2.7706947586870730e-10  -2.5694233047773370e-10  -2.3273057879429214e-10  -2.0544898706878487e-10  -1.7617402370578824e-10  -1.4600224637597797e-10  -1.1600845811742313e-10  -8.7205235320254255e-11  -6.0505372657207957e-11  -3.6688672988178821e-11  -1.6374338569616426e-11  -1.8271838547389593e-19  1.2191838