<?xml version="1.0"?>
<VTKFile type="UnstructuredGrid"  version="0.1"  >
<UnstructuredGrid>
<Piece  NumberOfPoints="1089" NumberOfCells="2048">
<Points>
<DataArray  type="Float64"  NumberOfComponents="3"  format="ascii">0 0 0  0.03125 0 0  0.0625 0 0  0.09375 0 0  0.125 0 0  0.15625 0 0  0.1875 0 0  0.21875 0 0  0.25 0 0  0.28125 0 0  0.3125 0 0  0.34375 0 0  0.375 0 0  0.40625 0 0  0.4375 0 0  0.46875 0 0  0.5 0 0  0.53125 0 0  0.5625 0 0  0.59375 0 0  0.625 0 0  0.65625 0 0  0.6875 0 0  0.71875 0 0  0.75 0 0  0.78125 0 0  0.8125 0 0  0.84375 0 0  0.875 0 0  0.90625 0 0  0.9375 0 0  0.96875 0 0  1 0 0  0 0.03125 0  0.03125 0.03125 0  0.0625 0.03125 0  0.09375 0.03125 0  0.125 0.03125 0  0.15625 0.03125 0  0.1875 0.03125 0  0.21875 0.03125 0  0.25 0.03125 0  0.28125 0.03125 0  0.3125 0.03125 0  0.34375 0.03125 0  0.375 0.03125 0  0.40625 0.03125 0  0.4375 0.03125 0  0.46875 0.03125 0  0.5 0.03125 0  0.53125 0.03125 0  0.5625 0.03125 0  0.59375 0.03125 0  0.625 0.03125 0  0.65625 0.03125 0  0.6875 0.03125 0  0.71875 0.03125 0  0.75 0.03125 0  0.78125 0.03125 0  0.8125 0.03125 0  0.84375 0.03125 0  0.875 0.03125 0  0.90625 0.03125 0  0.9375 0.03125 0  0.96875 0.03125 0  1 0.03125 0  0 0.0625 0  0.03125 0.0625 0  0.0625 0.0625 0  0.09375 0.0625 0  0.125 0.0625 0  0.15625 0.0625 0  0.1875 0.0625 0  0.21875 0.0625 0  0.25 0.0625 0  0.28125 0.0625 0  0.3125 0.0625 0  0.34375 0.0625 0  0.375 0.0625 0  0.40625 0.0625 0  0.4375 0.0625 0  0.46875 0.0625 0  0.5 0.0625 0  0.53125 0.0625 0  0.5625 0.0625 0  0.59375 0.0625 0  0.625 0.0625 0  0.65625 0.0625 0  0.6875 0.0625 0  0.71875 0.0625 0  0.75 0.0625 0  0.78125 0.0625 0  0.8125 0.0625 0  0.84375 0.0625 0  0.875 0.0625 0  0.90625 0.0625 0  0.9375 0.0625 0  0.96875 0.0625 0  1 0.0625 0  0 0.09375 0  0.03125 0.09375 0  0.0625 0.09375 0  0.09375 0.09375 0  0.125 0.09375 0  0.15625 0.09375 0  0.1875 0.09375 0  0.21875 0.09375 0  0.25 0.09375 0  0.28125 0.09375 0  0.3125 0.09375 0  0.34375 0.09375 0  0.375 0.09375 0  0.40625 0.09375 0  0.4375 0.09375 0  0.46875 0.09375 0  0.5 0.09375 0  0.53125 0.09375 0  0.5625 0.09375 0  0.59375 0.09375 0  0.625 0.09375 0  0.65625 0.09375 0  0.6875 0.09375 0  0.71875 0.09375 0  0.75 0.09375 0  0.78125 0.09375 0  0.8125 0.09375 0  0.84375 0.09375 0  0.875 0.09375 0  0.90625 0.09375 0  0.9375 0.09375 0  0.96875 0.09375 0  1 0.09375 0  0 0.125 0  0.03125 0.125 0  0.0625 0.125 0  0.09375 0.125 0  0.125 0.125 0  0.15625 0.125 0  0.1875 0.125 0  0.21875 0.125 0  0.25 0.125 0  0.28125 0.125 0  0.3125 0.125 0  0.34375 0.125 0  0.375 0.125 0  0.40625 0.125 0  0.4375 0.125 0  0.46875 0.125 0  0.5 0.125 0  0.53125 0.125 0  0.5625 0.125 0  0.59375 0.125 0  0.625 0.125 0  0.65625 0.125 0  0.6875 0.125 0  0.71875 0.125 0  0.75 0.125 0  0.78125 0.125 0  0.8125 0.125 0  0.84375 0.125 0  0.875 0.125 0  0.90625 0.125 0  0.9375 0.125 0  0.96875 0.125 0  1 0.125 0  0 0.15625 0  0.03125 0.15625 0  0.0625 0.15625 0  0.09375 0.15625 0  0.125 0.15625 0  0.15625 0.15625 0  0.1875 0.15625 0  0.21875 0.15625 0  0.25 0.15625 0  0.28125 0.15625 0  0.3125 0.15625 0  0.34375 0.15625 0  0.375 0.15625 0  0.40625 0.15625 0  0.4375 0.15625 0  0.46875 0.15625 0  0.5 0.15625 0  0.53125 0.15625 0  0.5625 0.15625 0  0.59375 0.15625 0  0.625 0.15625 0  0.65625 0.15625 0  0.6875 0.15625 0  0.71875 0.15625 0  0.75 0.15625 0  0.78125 0.15625 0  0.8125 0.15625 0  0.84375 0.15625 0  0.875 0.15625 0  0.90625 0.15625 0  0.9375 0.15625 0  0.96875 0.15625 0  1 0.15625 0  0 0.1875 0  0.03125 0.1875 0  0.0625 0.1875 0  0.09375 0.1875 0  0.125 0.1875 0  0.15625 0.1875 0  0.1875 0.1875 0  0.21875 0.1875 0  0.25 0.1875 0  0.28125 0.1875 0  0.3125 0.1875 0  0.34375 0.1875 0  0.375 0.1875 0  0.40625 0.1875 0  0.4375 0.1875 0  0.46875 0.1875 0  0.5 0.1875 0  0.53125 0.1875 0  0.5625 0.1875 0  0.59375 0.1875 0  0.625 0.1875 0  0.65625 0.1875 0  0.6875 0.1875 0  0.71875 0.1875 0  0.75 0.1875 0  0.78125 0.1875 0  0.8125 0.1875 0  0.84375 0.1875 0  0.875 0.1875 0  0.90625 0.1875 0  0.9375 0.1875 0  0.96875 0.1875 0  1 0.1875 0  0 0.21875 0  0.03125 0.21875 0  0.0625 0.21875 0  0.09375 0.21875 0  0.125 0.21875 0  0.15625 0.21875 0  0.1875 0.21875 0  0.21875 0.21875 0  0.25 0.21875 0  0.28125 0.21875 0  0.3125 0.21875 0  0.34375 0.21875 0  0.375 0.21875 0  0.40625 0.21875 0  0.4375 0.21875 0  0.46875 0.21875 0  0.5 0.21875 0  0.53125 0.21875 0  0.5625 0.21875 0  0.59375 0.21875 0  0.625 0.21875 0  0.65625 0.21875 0  0.6875 0.21875 0  0.71875 0.21875 0  0.75 0.21875 0  0.78125 0.21875 0  0.8125 0.21875 0  0.84375 0.21875 0  0.875 0.21875 0  0.90625 0.21875 0  0.9375 0.21875 0  0.96875 0.21875 0  1 0.21875 0  0 0.25 0  0.03125 0.25 0  0.0625 0.25 0  0.09375 0.25 0  0.125 0.25 0  0.15625 0.25 0  0.1875 0.25 0  0.21875 0.25 0  0.25 0.25 0  0.28125 0.25 0  0.3125 0.25 0  0.34375 0.25 0  0.375 0.25 0  0.40625 0.25 0  0.4375 0.25 0  0.46875 0.25 0  0.5 0.25 0  0.53125 0.25 0  0.5625 0.25 0  0.59375 0.25 0  0.625 0.25 0  0.65625 0.25 0  0.6875 0.25 0  0.71875 0.25 0  0.75 0.25 0  0.78125 0.25 0  0.8125 0.25 0  0.84375 0.25 0  0.875 0.25 0  0.90625 0.25 0  0.9375 0.25 0  0.96875 0.25 0  1 0.25 0  0 0.28125 0  0.03125 0.28125 0  0.0625 0.28125 0  0.09375 0.28125 0  0.125 0.28125 0  0.15625 0.28125 0  0.1875 0.28125 0  0.21875 0.28125 0  0.25 0.28125 0  0.28125 0.28125 0  0.3125 0.28125 0  0.34375 0.28125 0  0.375 0.28125 0  0.40625 0.28125 0  0.4375 0.28125 0  0.46875 0.28125 0  0.5 0.28125 0  0.53125 0.28125 0  0.5625 0.28125 0  0.59375 0.28125 0  0.625 0.28125 0  0.65625 0.28125 0  0.6875 0.28125 0  0.71875 0.28125 0  0.75 0.28125 0  0.78125 0.28125 0  0.8125 0.28125 0  0.84375 0.28125 0  0.875 0.28125 0  0.90625 0.28125 0  0.9375 0.28125 0  0.96875 0.28125 0  1 0.28125 0  0 0.3125 0  0.03125 0.3125 0  0.0625 0.3125 0  0.09375 0.3125 0  0.125 0.3125 0  0.15625 0.3125 0  0.1875 0.3125 0  0.21875 0.3125 0  0.25 0.3125 0  0.28125 0.3125 0  0.3125 0.3125 0  0.34375 0.3125 0  0.375 0.3125 0  0.40625 0.3125 0  0.4375 0.3125 0  0.46875 0.3125 0  0.5 0.3125 0  0.53125 0.3125 0  0.5625 0.3125 0  0.59375 0.3125 0  0.625 0.3125 0  0.65625 0.3125 0  0.6875 0.3125 0  0.71875 0.3125 0  0.75 0.3125 0  0.78125 0.3125 0  0.8125 0.3125 0  0.84375 0.3125 0  0.875 0.3125 0  0.90625 0.3125 0  0.9375 0.3125 0  0.96875 0.3125 0  1 0.3125 0  0 0.34375 0  0.03125 0.34375 0  0.0625 0.34375 0  0.09375 0.34375 0  0.125 0.34375 0  0.15625 0.34375 0  0.1875 0.34375 0  0.21875 0.34375 0  0.25 0.34375 0  0.28125 0.34375 0  0.3125 0.34375 0  0.34375 0.34375 0  0.375 0.34375 0  0.40625 0.34375 0  0.4375 0.34375 0  0.46875 0.34375 0  0.5 0.34375 0  0.53125 0.34375 0  0.5625 0.34375 0  0.59375 0.34375 0  0.625 0.34375 0  0.65625 0.34375 0  0.6875 0.34375 0  0.71875 0.34375 0  0.75 0.34375 0  0.78125 0.34375 0  0.8125 0.34375 0  0.84375 0.34375 0  0.875 0.34375 0  0.90625 0.34375 0  0.9375 0.34375 0  0.96875 0.34375 0  1 0.34375 0  0 0.375 0  0.03125 0.375 0  0.0625 0.375 0  0.09375 0.375 0  0.125 0.375 0  0.15625 0.375 0  0.1875 0.375 0  0.21875 0.375 0  0.25 0.375 0  0.28125 0.375 0  0.3125 0.375 0  0.34375 0.375 0  0.375 0.375 0  0.40625 0.375 0  0.4375 0.375 0  0.46875 0.375 0  0.5 0.375 0  0.53125 0.375 0  0.5625 0.375 0  0.59375 0.375 0  0.625 0.375 0  0.65625 0.375 0  0.6875 0.375 0  0.71875 0.375 0  0.75 0.375 0  0.78125 0.375 0  0.8125 0.375 0  0.84375 0.375 0  0.875 0.375 0  0.90625 0.375 0  0.9375 0.375 0  0.96875 0.375 0  1 0.375 0  0 0.40625 0  0.03125 0.40625 0  0.0625 0.40625 0  0.09375 0.40625 0  0.125 0.40625 0  0.15625 0.40625 0  0.1875 0.40625 0  0.21875 0.40625 0  0.25 0.40625 0  0.28125 0.40625 0  0.3125 0.40625 0  0.34375 0.40625 0  0.375 0.40625 0  0.40625 0.40625 0  0.4375 0.40625 0  0.46875 0.40625 0  0.5 0.40625 0  0.53125 0.40625 0  0.5625 0.40625 0  0.59375 0.40625 0  0.625 0.40625 0  0.65625 0.40625 0  0.6875 0.40625 0  0.71875 0.40625 0  0.75 0.40625 0  0.78125 0.40625 0  0.8125 0.40625 0  0.84375 0.40625 0  0.875 0.40625 0  0.90625 0.40625 0  0.9375 0.40625 0  0.96875 0.40625 0  1 0.40625 0  0 0.4375 0  0.03125 0.4375 0  0.0625 0.4375 0  0.09375 0.4375 0  0.125 0.4375 0  0.15625 0.4375 0  0.1875 0.4375 0  0.21875 0.4375 0  0.25 0.4375 0  0.28125 0.4375 0  0.3125 0.4375 0  0.34375 0.4375 0  0.375 0.4375 0  0.40625 0.4375 0  0.4375 0.4375 0  0.46875 0.4375 0  0.5 0.4375 0  0.53125 0.4375 0  0.5625 0.4375 0  0.59375 0.4375 0  0.625 0.4375 0  0.65625 0.4375 0  0.6875 0.4375 0  0.71875 0.4375 0  0.75 0.4375 0  0.78125 0.4375 0  0.8125 0.4375 0  0.84375 0.4375 0  0.875 0.4375 0  0.90625 0.4375 0  0.9375 0.4375 0  0.96875 0.4375 0  1 0.4375 0  0 0.46875 0  0.03125 0.46875 0  0.0625 0.46875 0  0.09375 0.46875 0  0.125 0.46875 0  0.15625 0.46875 0  0.1875 0.46875 0  0.21875 0.46875 0  0.25 0.46875 0  0.28125 0.46875 0  0.3125 0.46875 0  0.34375 0.46875 0  0.375 0.46875 0  0.40625 0.46875 0  0.4375 0.46875 0  0.46875 0.46875 0  0.5 0.46875 0  0.53125 0.46875 0  0.5625 0.46875 0  0.59375 0.46875 0  0.625 0.46875 0  0.65625 0.46875 0  0.6875 0.46875 0  0.71875 0.46875 0  0.75 0.46875 0  0.78125 0.46875 0  0.8125 0.46875 0  0.84375 0.46875 0  0.875 0.46875 0  0.90625 0.46875 0  0.9375 0.46875 0  0.96875 0.46875 0  1 0.46875 0  0 0.5 0  0.03125 0.5 0  0.0625 0.5 0  0.09375 0.5 0  0.125 0.5 0  0.15625 0.5 0  0.1875 0.5 0  0.21875 0.5 0  0.25 0.5 0  0.28125 0.5 0  0.3125 0.5 0  0.34375 0.5 0  0.375 0.5 0  0.40625 0.5 0  0.4375 0.5 0  0.46875 0.5 0  0.5 0.5 0  0.53125 0.5 0  0.5625 0.5 0  0.59375 0.5 0  0.625 0.5 0  0.65625 0.5 0  0.6875 0.5 0  0.71875 0.5 0  0.75 0.5 0  0.78125 0.5 0  0.8125 0.5 0  0.84375 0.5 0  0.875 0.5 0  0.90625 0.5 0  0.9375 0.5 0  0.96875 0.5 0  1 0.5 0  0 0.53125 0  0.03125 0.53125 0  0.0625 0.53125 0  0.09375 0.53125 0  0.125 0.53125 0  0.15625 0.53125 0  0.1875 0.53125 0  0.21875 0.53125 0  0.25 0.53125 0  0.28125 0.53125 0  0.3125 0.53125 0  0.34375 0.53125 0  0.375 0.53125 0  0.40625 0.53125 0  0.4375 0.53125 0  0.46875 0.53125 0  0.5 0.53125 0  0.53125 0.53125 0  0.5625 0.53125 0  0.59375 0.53125 0  0.625 0.53125 0  0.65625 0.53125 0  0.6875 0.53125 0  0.71875 0.53125 0  0.75 0.53125 0  0.78125 0.531
[...]
<PointData  Scalars="phi"> 
<DataArray  type="Float64"  Name="phi"  format="ascii">0.0000000000000000e+00  0.0000000000000000e+00  0.0000000000000000e+00  0.0000000000000000e+00  0.0000000000000000e+00  0.0000000000000000e+00  0.0000000000000000e+00  0.0000000000000000e+00  0.0000000000000000e+00  0.0000000000000000e+00  0.0000000000000000e+00  0.0000000000000000e+00  0.0000000000000000e+00  0.0000000000000000e+00  0.0000000000000000e+00  0.0000000000000000e+00  0.0000000000000000e+00  0.0000000000000000e+00  0.0000000000000000e+00  0.0000000000000000e+00  0.0000000000000000e+00  0.0000000000000000e+00  0.0000000000000000e+00  0.0000000000000000e+00  0.0000000000000000e+00  0.0000000000000000e+00  0.0000000000000000e+00  0.0000000000000000e+00  0.0000000000000000e+00  0.0000000000000000e+00  0.0000000000000000e+00  0.0000000000000000e+00  0.0000000000000000e+00  0.0000000000000000e+00  -3.2837051588697132e-20  2.4841727688970087e-11  9.7882447379819817e-11  2.4004481948300208e-10  4.6882468807556745e-10  7.9742113265437739e-10  1.2340329400053506e-09  1.7813540193428416e-09  2.4362906356868111e-09  3.1899139111142376e-09  4.0276515134756766e-09  4.9297129376790145e-09  5.8717335551701682e-09  6.8256139768595748e-09  7.7605235571455305e-09  8.6440303506176029e-09  9.4433147661003353e-09  1.0126420739754303e-08  1.0663496603776138e-08  1.1027978027460177e-08  1.1197667452690145e-08  1.1155668270120462e-08  1.0891137460332184e-08  1.0399827386997222e-08  9.6843956931771410e-09  8.7544716845615457e-09  7.6264782619654912e-09  6.3232211185617972e-09  4.8732742838900171e-09  3.3102224939449231e-09  1.6718987758571990e-09  0.0000000000000000e+00  0.0000000000000000e+00  -2.4841727819570131e-11  -1.2988878479286606e-19  1.2118339319676737e-10  3.8056486352606293e-10  8.1319688943960142e-10  1.4455845573416193e-09  2.2942782930585670e-09  3.3648643615105864e-09  4.6513976365875492e-09  6.1363030740558368e-09  7.7907535984041363e-09  9.5755132718729553e-09  1.1442216280531376e-08  1.3335035106140998e-08  1.5192675890696620e-08  1.6950626023050656e-08  1.8543568879282815e-08  1.9907873819509139e-08  2.0984066250409544e-08  2.1719182939221988e-08  2.2068921809185208e-08  2.1999503022673433e-08  2.1489169008127667e-08  2.0529264850824309e-08  1.9124856722932408e-08  1.7294864356789686e-08  1.5071703676456604e-08  1.2500457663139530e-08  9.6376181322522377e-09  6.5494700207349684e-09  3.3102224939449326e-09  0.0000000000000000e+00  0.0000000000000000e+00  -9.7882447574005791e-11  -1.2118339358307990e-10  -2.8726870033959786e-19  3.2847343169165769e-10  9.1693700827711840e-10  1.8053732249277296e-09  3.0189404697363880e-09  4.5664609014781426e-09  6.4395677521397736e-09  8.6125509235468772e-09  1.1042912203894304e-08  1.3672613533511416e-08  1.6429974530984888e-08  1.9232149970211285e-08  2.1988095042013931e-08  2.4601906912342580e-08  2.6976416044118687e-08  2.9016890562461878e-08  3.0634712010972984e-08  3.1750881369092948e-08  3.2299220171195034e-08  3.2229142777863789e-08  3.1507891898300697e-08  3.0122149779804400e-08  2.8078961357599437e-08  2.5405932289128871e-08  2.2150693310068642e-08  1.8379651783523642e-08  1.4176080332521740e-08  9.6376181322522840e-09  4.8732742838900552e-09  0.0000000000000000e+00  0.0000000000000000e+00  -2.4004481973883343e-10  -3.8056486403505916e-10  -3.2847343244870714e-10  -4.9879644965751270e-19  6.7531481252481987e-10  1.7511537627346139e-09  3.2616280774331086e-09  5.2192686171137770e-09  7.6138880109344346e-09  1.0412364636541575e-08  1.3559363264204198e-08  1.6978970543490051e-08  2.0577187692195969e-08  2.4245189125985080e-08  2.7863225632797409e-08  3.1305025206521190e-08  3.4442524791756358e-08  3.7150752724191173e-08  3.9312675104237749e-08  4.0823819976798581e-08  4.1596500995885393e-08  4.1563476945649479e-08  4.0680904524853320e-08  3.8930468395382673e-08  3.6320603648496419e-08  3.2886760365401879e-08  2.8690696458358520e-08  2.3818821819531629e-08  1.8379651783523768e-08  1.2500457663139677e-08  6.3232211185618899e-09  0.0000000000000000e+00  0.0000000000000000e+00  -4.6882468839051378e-10  -8.1319689006625163e-10  -9.1693700920920712e-10  -6.7531481375312011e-10  -7.5620727206352527e-19  1.1766429609627898e-09  2.8980887984574317e-09  5.1811558240696541e-09  8.0145849475054981e-09  1.1358755819464719e-08  1.5146558367957946e-08  1.9285392946789516e-08  2.3660228239739872e-08  2.8137604661218856e-08  3.2570433863427491e-08  3.6803413534401032e-08  4.0678852164721447e-08  4.4042681822253502e-08  4.6750428851893364e-08  4.8672913132898726e-08  4.9701456063145250e-08  4.9752395442220958e-08  4.8770731211498162e-08  4.6732758592374445e-08  4.3647583280404438e-08  3.9557455490213546e-08  3.4536904054722487e-08  2.8690696458358784e-08  2.2150693310069002e-08  1.5071703676456922e-08  7.6264782619656748e-09  0.0000000000000000e+00  0.0000000000000000e+00  -7.9742113302534008e-10  -1.4455845580797605e-09  -1.8053732260256958e-09  -1.7511537641815559e-09  -1.1766429627444713e-09  -1.0494707250470878e-18  1.8320598306767864e-09  4.3412968344266228e-09  7.5162468629840185e-09  1.1311863297926923e-08  1.5650522731437364e-08  2.0424362997513612e-08  2.5498870270777028e-08  3.0717583150571548e-08  3.5907737863199787e-08  4.0886641638800871e-08  4.5468532385453782e-08  4.9471663112385942e-08  5.2725339911675844e-08  5.5076643073283669e-08  5.6396572060944240e-08  5.6585376194877745e-08  5.5576863162726909e-08  5.3341515743098573e-08  4.9888291882460683e-08  4.5265032739678932e-08  3.9557455490214009e-08  3.2886760365402567e-08  2.5405932289129579e-08  1.7294864356790249e-08  8.7544716845618567e-09  0.0000000000000000e+00  0.0000000000000000e+00  -1.2340329404286919e-09  -2.2942782939009624e-09  -3.0189404709894703e-09  -3.2616280790845160e-09  -2.8980888004909312e-09  -1.8320598330724392e-09  -1.3671819047639796e-18  2.6254874927447379e-09  6.0336822752884516e-09  1.0175308511428896e-08  1.4963656209992015e-08  2.0277226648236799e-08  2.5963807139885206e-08  3.1845824620472336e-08  3.7726777487349488e-08  4.3398502741977612e-08  4.8649002378920012e-08  5.3270530431003051e-08  5.7067630988719808e-08  5.9864818299042721e-08  6.1513602691695631e-08  6.1898590098945001e-08  6.0942417405797373e-08  5.8609329459219926e-08  5.4907254582302810e-08  4.9888291882461404e-08  4.3647583280405576e-08  3.6320603648497703e-08  2.8078961357600621e-08  1.9124856722933304e-08  9.6843956931776241e-09  0.0000000000000000e+00  0.0000000000000000e+00  -1.7813540198144208e-09  -3.3648643624489967e-09  -4.5664609028740869e-09  -5.2192686189535036e-09  -5.1811558263350950e-09  -4.3412968370955772e-09  -2.6254874957910993e-09  -1.6970078219720702e-18  3.5261802551937380e-09  7.9008305945360598e-09  1.3029708123264987e-08  1.8779468902710718e-08  2.4982183982924035e-08  3.1441284899229653e-08  3.7938715398314654e-08  4.4243018845577242e-08  5.0118053790800388e-08  5.5332004966102490e-08  5.9666344536221384e-08  6.2924399203518280e-08  6.4939192765819394e-08  6.5580260401700001e-08  6.4759169291770844e-08  6.2433528699710423e-08  5.8609329459220958e-08  5.3341515743100287e-08  4.6732758592376483e-08  3.8930468395384731e-08  3.0122149779806193e-08  2.0529264850825629e-08  1.0399827386997920e-08  0.0000000000000000e+00  0.0000000000000000e+00  -2.4362906362020238e-09  -4.6513976376128148e-09  -6.4395677536649557e-09  -7.6138880129445265e-09  -8.0145849499807765e-09  -7.5162468659002372e-09  -6.0336822786170975e-09  -3.5261802589023105e-09  -2.0261703665660512e-18  4.4910146045543903e-09  9.8467271189123989e-09  1.5923865220149644e-08  2.2540927404184386e-08  2.9484657143740884e-08  3.6517840854880574e-08  4.3388134206209748e-08  4.9837580796528758e-08  5.5612459578038066e-08  6.0473083686491893e-08  6.4203174092165951e-08  6.6618446684694991e-08  6.7574080472889884e-08  6.6970776405084249e-08  6.4759169291772247e-08  6.0942417405799755e-08  5.5576863162729880e-08  4.8770731211501325e-08  4.0680904524856324e-08  3.1507891898303238e-08  2.1489169008129497e-08  1.0891137460333140e-08  0.0000000000000000e+00  0.0000000000000000e+00  -3.1899139116680639e-09  -6.1363030751579664e-09  -8.6125509251864369e-09  -1.0412364638702450e-08  -1.1358755822125721e-08  -1.1311863301062002e-08  -1.0175308515007410e-08  -7.9008305985230770e-09  -4.4910146089110455e-09  -2.3419413585184388e-18  5.4678654602520085e-09  1.1761381682584139e-08  1.8687739496765174e-08  2.6019455382849561e-08  3.3502735999858665e-08  4.0866955067054622e-08  4.7834881459246814e-08  5.4133267533203675e-08  5.9503391838711526e-08  6.3711151066495540e-08  6.6556312326926392e-08  6.7880568021484348e-08  6.7574080472891671e-08  6.5580260401703138e-08  6.1898590098949025e-08  5.6585376194882218e-08  4.9752395442225451e-08  4.1563476945653595e-08  3.2229142777867184e-08  2.1999503022675852e-08  1.1155668270121716e-08  0.0000000000000000e+00  0.0000000000000000e+00  -4.0276515140627292e-09  -7.7907535995724098e-09  -1.1042912205632291e-08  -1.3559363266494838e-08  -1.5146558370778791e-08  -1.5650522734760817e-08  -1.4963656213785601e-08  -1.3029708127491683e-08  -9.8467271235310131e-09  -5.4678654652175895e-09  -2.6321414173459602e-18  6.3997835102847715e-09  1.3529713404443769e-08  2.1150655255536600e-08  2.8994958188098743e-08  3.6776487989691564e-08  4.4201464265066575e-08  5.0979687085777379e-08  5.6835722705869385e-08  6.1519618536609456e-08  6.4816734686428862e-08  6.6556312326928563e-08  6.6618446684698896e-08  6.4939192765824555e-08  6.1513602691701547e-08  5.6396572060950434e-08  4.9701456063151239e-08  4.1596500995890754e-08  3.2299220171199395e-08  2.2068921809188281e-08  1.1197667452691733e-08  0.0000000000000000e+00  0.0000000000000000e+00  -4.9297129382935924e-09  -9.5755132730960262e-09  -1.3672613535330956e-08  -1.6978970545888213e-08  -1.9285392949742815e-08  -2.0424363000993167e-08  -2.0277226652208622e-08  -1.8779468907136062e-08  -1.5923865224985385e-08  -1.1761381687783218e-08  -6.3997835157966639e-09  -2.8856067101913463e-18  7.2296193570568204e-09  1.5040941203188983e-08  2.3155287431384970e-08  3.1273925199522851e-08  3.9089407140694092e-08  4.6297327699661929e-08  5.2608044739914273e-08  5.7757916094124147e-08  6.1519618536611997e-08  6.3711151066500198e-08  6.4203174092172264e-08  6.2924399203525718e-08  5.9864818299050754e-08  5.5076643073291762e-08  4.8672913132906369e-08  4.0823819976805297e-08  3.1750881369098348e-08  2.1719182939225769e-08  1.1027978027462121e-08  0.0000000000000000e+00  0.0000000000000000e+00  -5.8717335558063123e-09  -1.1442216281797388e-08  -1.6429974532868338e-08  -2.0577187694678401e-08  -2.3660228242796993e-08  -2.5498870274378956e-08  -2.5963807143996767e-08  -2.4982183987505130e-08  -2.2540927409190380e-08  -1.8687739502147364e-08  -1.3529713410149854e-08  -7.2296193630314285e-09  -3.0926183348645618e-18  7.9047015863356292e-09  1.6197681688168895e-08  2.4570619547773484e-08  3.2705410075606755e-08  4.0286336235771352e-08  4.7012214197806539e-08  5.2608044739917139e-08  5.6835722705874759e-08  5.9503391838718944e-08  6.0473083686500826e-08  5.9666344536231297e-08  5.7067630988730104e-08  5.2725339911685956e-08  4.6750428851902741e-08  3.9312675104245895e-08  3.0634712010979483e-08  2.0984066250414067e-08  1.0663496603778456e-08  0.0000000000000000e+00  0.0000000000000000e+00  -6.8256139775111276e-09  -1.3335035107437697e-08  -1.9232149972140416e-08  -2.4245189128527757e-08  -2.8137604664350215e-08  -3.0717583154260985e-08  -3.1845824624683843e-08  -3.1441284903922169e-08  -2.9484657148868693e-08  -2.6019455388362779e-08  -2.1150655261381663e-08  -1.5040941209309173e-08  -7.9047015926716508e-09  -3.2452737154644173e-18  8.3811709006583338e-09  1.6923980392173472e-08  2.5302770836202491e-08  3.3193528601412664e-08  4.0286336235774495e-08  4.6297327699667905e-08  5.0979687085785783e-08  5.4133267533214005e-08  5.5612459578049773e-08  5.5332004966114963e-08  5.3270530431015683e-08  4.9471663112398119e-08  4.4042681822264652e-08  3.7150752724200782e-08  2.9016890562469495e-08  1.9907873819514416e-08  1.0126420739757001e-08  0.0000000000000000e+00  0.0000000000000000e+00  -7.7605235578061964e-09  -1.5192675892011473e-08  -2.1988095043970104e-08  -2.7863225635375764e-08  -3.2570433866602825e-08  -3.5907737866941085e-08  -3.7726777491620255e-08  -3.7938715403073246e-08  -3.6517840860080654e-08  -3.3502736005449645e-08  -2.8994958194026313e-08  -2.3155287437591620e-08  -1.6197681694594487e-08  -8.3811709072407046e-09  -3.3377818893344857e-18  8.6276015074112669e-09  1.7171592789787243e-08  2.5302770836205823e-08  3.2705410075613194e-08  3.9089407140703297e-08  4.4201464265078096e-08  4.7834881459260122e-08  4.9837580796543257e-08  5.0118053790815449e-08  4.8649002378934987e-08  4.5468532385468030e-08  4.0678852164734365e-08  3.4442524791767402e-08  2.6976416044127399e-08  1.8543568879288831e-08  9.4433147661034058e-09  0.0000000000000000e+00  0.0000000000000000e+00  -8.6440303512810084e-09  -1.6950626024370985e-08  -2.4601906914306922e-08  -3.1305025209110345e-08  -3.6803413537589714e-08  -4.0886641642557945e-08  -4.3398502746266437e-08  -4.4243018850356017e-08  -4.3388134211431938e-08  -4.0866955072669438e-08  -3.6776487995644465e-08  -3.1273925205756094e-08  -2.4570619554226670e-08  -1.6923980398784177e-08  -8.6276015141156336e-09  -3.3666805159832805e-18  8.6276015074146964e-09  1.6923980392180199e-08  2.4570619547783251e-08  3.1273925199535285e-08  3.6776487989706182e-08  4.0866955067070861e-08  4.3388134206226987e-08  4.4243018845594811e-08  4.3398502741994844e-08  4.0886641638817104e-08  3.6803413534415643e-08  3.1305025206533611e-08  2.4601906912352337e-08  1.6950626023057376e-08  8.6440303506210274e-09  0.0000000000000000e+00  0.0000000000000000e+00  -9.4433147667600912e-09  -1.8543568880595898e-08  -2.6976416046072279e-08  -3.4442524794331384e-08  -4.0678852167892765e-08  -4.5468532389190455e-08  -4.8649002383185590e-08  -5.0118053795553315e-08  -4.9837580801722757e-08  -4.7834881464831389e-08  -4.4201464270987481e-08  -3.9089407146893891e-08  -3.2705410082025386e-08  -2.5302770842777865e-08  -1.7171592796455844e-08  -8.6276015141122041e-09  -3.3309569847493863e-18  8.3811709006683923e-09  1.6197681688181899e-08  2.3155287431400511e-08  2.8994958188116315e-08  3.3502735999877677e-08  3.6517840854900380e-08  3.7938715398334560e-08  3.7726777487368818e-08  3.5907737863217846e-08  3.2570433863443644e-08  2.7863225632811087e-08  2.1988095042024642e-08  1.5192675890703979e-08  7.7605235571492760e-09  0.0000000000000000e+00  0.0000000000000000e+00  -1.0126420740404070e-08  -1.9907873820802360e-08  -2.9016890564385946e-08  -3.7150752726727322e-08  -4.4042681825376975e-08  -4.9471663116066281e-08  -5.3270530435204374e-08  -5.5332004970783875e-08  -5.5612459583153954e-08  -5.4133267538704320e-08  -5.0979687091609360e-08  -4.6297327705768679e-08  -4.0286336242093711e-08  -3.3193528607889481e-08  -2.5302770842774537e-08  -1.6923980398777450e-08  -8.3811709072306477e-09  -3.2320786833763450e-18  7.9047015863516468e-09  1.5040941203207393e-08  2.1150655255556869e-08  2.6019455382871084e-08  2.9484657143762993e-08  3.1441284899251650e-08  3.1845824620493512e-08  3.0717583150591215e-08  2.8137604661236363e-08  2.4245189125999844e-08  1.9232149970222813e-08  1.3335035106148908e-08  6.8256139768635966e-09  0.0000000000000000e+00  0.0000000000000000e+00  -1.0663496604409677e-08  -2.0984066251670488e-08  -3.0634712012849057e-08  -3.9312675106710668e-08  -4.6750428854939016e-08  -5.2725339915264538e-08  -5.7067630992816555e-08  -5.9666344540786296e-08  -6.0473083691480546e-08  -5.9503391844075428e-08  -5.6835722711556450e-08  -5.2608044745869345e-08  -4.7012214203971933e-08  -4.0286336242090575e-08  -3.2705410082018954e-08  -2.4570619554216906e-08  -1.6197681694581491e-08  -7.9047015926556349e-09  -3.0739252515047671e-18  7.2296193570777406e-09  1.3529713404466372e-08  1.8687739496788842e-08  2.2540927404208437e-08  2.4982183982947768e-08  2.5963807139907907e-08  2.5498870270798002e-08  2.3660228239758467e-08  2.0577187692211606e-08  1.6429974530997074e-08  1.1442216280539721e-08  5.8717335551744083e-09  0.0000000000000000e+00  0.0000000000000000e+00  -1.1027978028071420e-08  -2.1719182940438575e-08  -3.1750881370903051e-08  -4.0823819979184580e-08  -4.8672913135837367e-08  -5.5076643076746313e-08  -5.9864818302995625e-08  -6.2924399207922971e-08  -6.4203174096979560e-08  -6.3711151071671295e-08  -6.1519618542097117e-08  -5.7757916099870465e-08  -5.2608044745866473e-08  -4.6297327705762704e-08  -3.9089407146884692e-08  -3.1273925205743666e-08  -2.3155287437576082e-08  -1.5040941209290767e-08  -7.2296193630105074e-09  -2.8626327078419103e-18  6.3997835103092453e-09  1.1761381682609488e-08  1.5923865220175194e-08  1.8779468902735762e-08  2.0277226648260628e-08  2.0424362997535536e-08  1.9285392946808892e-08  1.6978970543506304e-08  1.3672613533524057e-08  9.5755132718816010e-09  4.9297129376834052e-09  0.0000000000000000e+00  0.0000000000000000e+00  -1.1197667453273246e-08  -2.2068921810345798e-08  -3.2299220172921856e-08  -4.1596500998161642e-08  -4.9701456065948770e-08  -5.6396572064247715e-08  -6.1513602695466886e-08  -6.4939192770021723e-08  -6.6618446689287525e-08  -6.6556312331864475e-08  -6.4816734691664584e-08  -6.1519618542094576e-08  -5.6835722711551084e-08  -5.0979687091600962e-08  -4.4201464270975967e-08  -3.6776487995629861e-08  -2.8994958194008747e-08  -2.1150655261361394e-08  -1.3529713410127249e-08  -6.3997835157721901e-09  -2.6063489278443356e-18  5.4678654602785006e-09  9.8467271189389216e-09  1.3029708123290846e-08  1.4963656210016512e-08  1.5650522731459830e-08  1.5146558367977745e-08  1.3559363264220772e-08  1.1042912203907175e-08  7.7907535984129325e-09  4.0276515134801392e-09  0.0000000000000000e+00  0.0000000000000000e+00  -1.1155668270669851e-08  -2.1999503023766949e-08  -3.2229142779490840e-08  -4.1563476947794252e-08  -4.9752395444862575e-08  -5.6585376197990491e-08  -6.1898590102498582e-08  -6.5580260405659827e-08  -6.7574080477217455e-08  -6.7880568026137589e-08  -6.6556312331862318e-08  -6.3711151071666636e-08  -5.9503391844068023e-08  -5.4133267538693997e-08  -4.7834881464818088e-08  -4.0866955072653206e-08  -3.3502736005430640e-08  -2.6019455388341259e-08  -1.8687739502123697e-08  -1.1761381687757869e-08  -5.4678654651910982e-09  -2.3149138123995737e-18  4.4910146045813051e-09  7.9008305945621888e-09  1.0175308511453564e-08  1.1311863297949479e-08  1.1358755819484556e-08  1.0412364636558152e-08  8.6125509235597333e-09  6.1363030740646140e-09  3.1899139111186894e-09  0.0000000000000000e+00  0.0000000000000000e+00  -1.0891137460842624e-08  -2.1489169009143680e-08  -3.1507891899812465e-08  -4.0680904526846156e-08  -4.8770731213952691e-08  -5.5576863165619248e-08  -6.0942417409099372e-08  -6.4759169295450395e-08  -6.6970776409105564e-08  -6.7574080477215668e-08  -6.6618446689283620e-08  -6.4203174096973260e-08  -6.0473083691471613e-08  -5.5612459583142260e-08  -4.9837580801708265e-08  -4.3388134211414706e-08  -3.6517840860060848e-08  -2.9484657148846581e-08  -2.2540927409166326e-08  -1.5923865224959835e-08  -9.8467271235044921e-09  -4.4910146088841315e-09  -1.9994850230961190e-18  3.5261802552195518e-09  6.0336822753127534e-09  7.5162468630061870e-09  8.0145849475249616e-09  7.6138880109506738e-09  6.4395677521523558e-09  4.6513976365961337e-09  2.4362906356911633e-09  0.0000000000000000e+00  0.0000000000000000e+00  -1.0399827387463856e-08  -2.0529264851753150e-08  -3.0122149781186493e-08  -3.8930468397204615e-08  -4.6732758594618527e-08  -5.3341515745742977e-08  -5.8609329462238924e-08  -6.2433528703074652e-08  -6.4759169295449005e-08  -6.5580260405656704e-08  -6.4939192770016561e-08  -6.2924399207915533e-08  -5.9666344540776396e-08  -5.5332004970771408e-08  -5.0118053795538260e-08  -4.4243018850338447e-08  -3.7938715403053327e-08  -3.1441284903900166e-08  -2.4982183987481393e-08  -1.8779468907111018e-08  -1.3029708127465824e-08  -7.9008305984969496e-09  -3.5261802588764962e-09  -1.6721089783834137e-18  2.6254874