<?xml version="1.0"?>
<VTKFile type="UnstructuredGrid"  version="0.1"  >
<UnstructuredGrid>
<Piece  NumberOfPoints="1089" NumberOfCells="2048">
<Points>
<DataArray  type="Float64"  NumberOfComponents="3"  format="ascii">0 0 0  0.03125 0 0  0.0625 0 0  0.09375 0 0  0.125 0 0  0.15625 0 0  0.1875 0 0  0.21875 0 0  0.25 0 0  0.28125 0 0  0.3125 0 0  0.34375 0 0  0.375 0 0  0.40625 0 0  0.4375 0 0  0.46875 0 0  0.5 0 0  0.53125 0 0  0.5625 0 0  0.59375 0 0  0.625 0 0  0.65625 0 0  0.6875 0 0  0.71875 0 0  0.75 0 0  0.78125 0 0  0.8125 0 0  0.84375 0 0  0.875 0 0  0.90625 0 0  0.9375 0 0  0.96875 0 0  1 0 0  0 0.03125 0  0.03125 0.03125 0  0.0625 0.03125 0  0.09375 0.03125 0  0.125 0.03125 0  0.15625 0.03125 0  0.1875 0.03125 0  0.21875 0.03125 0  0.25 0.03125 0  0.28125 0.03125 0  0.3125 0.03125 0  0.34375 0.03125 0  0.375 0.03125 0  0.40625 0.03125 0  0.4375 0.03125 0  0.46875 0.03125 0  0.5 0.03125 0  0.53125 0.03125 0  0.5625 0.03125 0  0.59375 0.03125 0  0.625 0.03125 0  0.65625 0.03125 0  0.6875 0.03125 0  0.71875 0.03125 0  0.75 0.03125 0  0.78125 0.03125 0  0.8125 0.03125 0  0.84375 0.03125 0  0.875 0.03125 0  0.90625 0.03125 0  0.9375 0.03125 0  0.96875 0.03125 0  1 0.03125 0  0 0.0625 0  0.03125 0.0625 0  0.0625 0.0625 0  0.09375 0.0625 0  0.125 0.0625 0  0.15625 0.0625 0  0.1875 0.0625 0  0.21875 0.0625 0  0.25 0.0625 0  0.28125 0.0625 0  0.3125 0.0625 0  0.34375 0.0625 0  0.375 0.0625 0  0.40625 0.0625 0  0.4375 0.0625 0  0.46875 0.0625 0  0.5 0.0625 0  0.53125 0.0625 0  0.5625 0.0625 0  0.59375 0.0625 0  0.625 0.0625 0  0.65625 0.0625 0  0.6875 0.0625 0  0.71875 0.0625 0  0.75 0.0625 0  0.78125 0.0625 0  0.8125 0.0625 0  0.84375 0.0625 0  0.875 0.0625 0  0.90625 0.0625 0  0.9375 0.0625 0  0.96875 0.0625 0  1 0.0625 0  0 0.09375 0  0.03125 0.09375 0  0.0625 0.09375 0  0.09375 0.09375 0  0.125 0.09375 0  0.15625 0.09375 0  0.1875 0.09375 0  0.21875 0.09375 0  0.25 0.09375 0  0.28125 0.09375 0  0.3125 0.09375 0  0.34375 0.09375 0  0.375 0.09375 0  0.40625 0.09375 0  0.4375 0.09375 0  0.46875 0.09375 0  0.5 0.09375 0  0.53125 0.09375 0  0.5625 0.09375 0  0.59375 0.09375 0  0.625 0.09375 0  0.65625 0.09375 0  0.6875 0.09375 0  0.71875 0.09375 0  0.75 0.09375 0  0.78125 0.09375 0  0.8125 0.09375 0  0.84375 0.09375 0  0.875 0.09375 0  0.90625 0.09375 0  0.9375 0.09375 0  0.96875 0.09375 0  1 0.09375 0  0 0.125 0  0.03125 0.125 0  0.0625 0.125 0  0.09375 0.125 0  0.125 0.125 0  0.15625 0.125 0  0.1875 0.125 0  0.21875 0.125 0  0.25 0.125 0  0.28125 0.125 0  0.3125 0.125 0  0.34375 0.125 0  0.375 0.125 0  0.40625 0.125 0  0.4375 0.125 0  0.46875 0.125 0  0.5 0.125 0  0.53125 0.125 0  0.5625 0.125 0  0.59375 0.125 0  0.625 0.125 0  0.65625 0.125 0  0.6875 0.125 0  0.71875 0.125 0  0.75 0.125 0  0.78125 0.125 0  0.8125 0.125 0  0.84375 0.125 0  0.875 0.125 0  0.90625 0.125 0  0.9375 0.125 0  0.96875 0.125 0  1 0.125 0  0 0.15625 0  0.03125 0.15625 0  0.0625 0.15625 0  0.09375 0.15625 0  0.125 0.15625 0  0.15625 0.15625 0  0.1875 0.15625 0  0.21875 0.15625 0  0.25 0.15625 0  0.28125 0.15625 0  0.3125 0.15625 0  0.34375 0.15625 0  0.375 0.15625 0  0.40625 0.15625 0  0.4375 0.15625 0  0.46875 0.15625 0  0.5 0.15625 0  0.53125 0.15625 0  0.5625 0.15625 0  0.59375 0.15625 0  0.625 0.15625 0  0.65625 0.15625 0  0.6875 0.15625 0  0.71875 0.15625 0  0.75 0.15625 0  0.78125 0.15625 0  0.8125 0.15625 0  0.84375 0.15625 0  0.875 0.15625 0  0.90625 0.15625 0  0.9375 0.15625 0  0.96875 0.15625 0  1 0.15625 0  0 0.1875 0  0.03125 0.1875 0  0.0625 0.1875 0  0.09375 0.1875 0  0.125 0.1875 0  0.15625 0.1875 0  0.1875 0.1875 0  0.21875 0.1875 0  0.25 0.1875 0  0.28125 0.1875 0  0.3125 0.1875 0  0.34375 0.1875 0  0.375 0.1875 0  0.40625 0.1875 0  0.4375 0.1875 0  0.46875 0.1875 0  0.5 0.1875 0  0.53125 0.1875 0  0.5625 0.1875 0  0.59375 0.1875 0  0.625 0.1875 0  0.65625 0.1875 0  0.6875 0.1875 0  0.71875 0.1875 0  0.75 0.1875 0  0.78125 0.1875 0  0.8125 0.1875 0  0.84375 0.1875 0  0.875 0.1875 0  0.90625 0.1875 0  0.9375 0.1875 0  0.96875 0.1875 0  1 0.1875 0  0 0.21875 0  0.03125 0.21875 0  0.0625 0.21875 0  0.09375 0.21875 0  0.125 0.21875 0  0.15625 0.21875 0  0.1875 0.21875 0  0.21875 0.21875 0  0.25 0.21875 0  0.28125 0.21875 0  0.3125 0.21875 0  0.34375 0.21875 0  0.375 0.21875 0  0.40625 0.21875 0  0.4375 0.21875 0  0.46875 0.21875 0  0.5 0.21875 0  0.53125 0.21875 0  0.5625 0.21875 0  0.59375 0.21875 0  0.625 0.21875 0  0.65625 0.21875 0  0.6875 0.21875 0  0.71875 0.21875 0  0.75 0.21875 0  0.78125 0.21875 0  0.8125 0.21875 0  0.84375 0.21875 0  0.875 0.21875 0  0.90625 0.21875 0  0.9375 0.21875 0  0.96875 0.21875 0  1 0.21875 0  0 0.25 0  0.03125 0.25 0  0.0625 0.25 0  0.09375 0.25 0  0.125 0.25 0  0.15625 0.25 0  0.1875 0.25 0  0.21875 0.25 0  0.25 0.25 0  0.28125 0.25 0  0.3125 0.25 0  0.34375 0.25 0  0.375 0.25 0  0.40625 0.25 0  0.4375 0.25 0  0.46875 0.25 0  0.5 0.25 0  0.53125 0.25 0  0.5625 0.25 0  0.59375 0.25 0  0.625 0.25 0  0.65625 0.25 0  0.6875 0.25 0  0.71875 0.25 0  0.75 0.25 0  0.78125 0.25 0  0.8125 0.25 0  0.84375 0.25 0  0.875 0.25 0  0.90625 0.25 0  0.9375 0.25 0  0.96875 0.25 0  1 0.25 0  0 0.28125 0  0.03125 0.28125 0  0.0625 0.28125 0  0.09375 0.28125 0  0.125 0.28125 0  0.15625 0.28125 0  0.1875 0.28125 0  0.21875 0.28125 0  0.25 0.28125 0  0.28125 0.28125 0  0.3125 0.28125 0  0.34375 0.28125 0  0.375 0.28125 0  0.40625 0.28125 0  0.4375 0.28125 0  0.46875 0.28125 0  0.5 0.28125 0  0.53125 0.28125 0  0.5625 0.28125 0  0.59375 0.28125 0  0.625 0.28125 0  0.65625 0.28125 0  0.6875 0.28125 0  0.71875 0.28125 0  0.75 0.28125 0  0.78125 0.28125 0  0.8125 0.28125 0  0.84375 0.28125 0  0.875 0.28125 0  0.90625 0.28125 0  0.9375 0.28125 0  0.96875 0.28125 0  1 0.28125 0  0 0.3125 0  0.03125 0.3125 0  0.0625 0.3125 0  0.09375 0.3125 0  0.125 0.3125 0  0.15625 0.3125 0  0.1875 0.3125 0  0.21875 0.3125 0  0.25 0.3125 0  0.28125 0.3125 0  0.3125 0.3125 0  0.34375 0.3125 0  0.375 0.3125 0  0.40625 0.3125 0  0.4375 0.3125 0  0.46875 0.3125 0  0.5 0.3125 0  0.53125 0.3125 0  0.5625 0.3125 0  0.59375 0.3125 0  0.625 0.3125 0  0.65625 0.3125 0  0.6875 0.3125 0  0.71875 0.3125 0  0.75 0.3125 0  0.78125 0.3125 0  0.8125 0.3125 0  0.84375 0.3125 0  0.875 0.3125 0  0.90625 0.3125 0  0.9375 0.3125 0  0.96875 0.3125 0  1 0.3125 0  0 0.34375 0  0.03125 0.34375 0  0.0625 0.34375 0  0.09375 0.34375 0  0.125 0.34375 0  0.15625 0.34375 0  0.1875 0.34375 0  0.21875 0.34375 0  0.25 0.34375 0  0.28125 0.34375 0  0.3125 0.34375 0  0.34375 0.34375 0  0.375 0.34375 0  0.40625 0.34375 0  0.4375 0.34375 0  0.46875 0.34375 0  0.5 0.34375 0  0.53125 0.34375 0  0.5625 0.34375 0  0.59375 0.34375 0  0.625 0.34375 0  0.65625 0.34375 0  0.6875 0.34375 0  0.71875 0.34375 0  0.75 0.34375 0  0.78125 0.34375 0  0.8125 0.34375 0  0.84375 0.34375 0  0.875 0.34375 0  0.90625 0.34375 0  0.9375 0.34375 0  0.96875 0.34375 0  1 0.34375 0  0 0.375 0  0.03125 0.375 0  0.0625 0.375 0  0.09375 0.375 0  0.125 0.375 0  0.15625 0.375 0  0.1875 0.375 0  0.21875 0.375 0  0.25 0.375 0  0.28125 0.375 0  0.3125 0.375 0  0.34375 0.375 0  0.375 0.375 0  0.40625 0.375 0  0.4375 0.375 0  0.46875 0.375 0  0.5 0.375 0  0.53125 0.375 0  0.5625 0.375 0  0.59375 0.375 0  0.625 0.375 0  0.65625 0.375 0  0.6875 0.375 0  0.71875 0.375 0  0.75 0.375 0  0.78125 0.375 0  0.8125 0.375 0  0.84375 0.375 0  0.875 0.375 0  0.90625 0.375 0  0.9375 0.375 0  0.96875 0.375 0  1 0.375 0  0 0.40625 0  0.03125 0.40625 0  0.0625 0.40625 0  0.09375 0.40625 0  0.125 0.40625 0  0.15625 0.40625 0  0.1875 0.40625 0  0.21875 0.40625 0  0.25 0.40625 0  0.28125 0.40625 0  0.3125 0.40625 0  0.34375 0.40625 0  0.375 0.40625 0  0.40625 0.40625 0  0.4375 0.40625 0  0.46875 0.40625 0  0.5 0.40625 0  0.53125 0.40625 0  0.5625 0.40625 0  0.59375 0.40625 0  0.625 0.40625 0  0.65625 0.40625 0  0.6875 0.40625 0  0.71875 0.40625 0  0.75 0.40625 0  0.78125 0.40625 0  0.8125 0.40625 0  0.84375 0.40625 0  0.875 0.40625 0  0.90625 0.40625 0  0.9375 0.40625 0  0.96875 0.40625 0  1 0.40625 0  0 0.4375 0  0.03125 0.4375 0  0.0625 0.4375 0  0.09375 0.4375 0  0.125 0.4375 0  0.15625 0.4375 0  0.1875 0.4375 0  0.21875 0.4375 0  0.25 0.4375 0  0.28125 0.4375 0  0.3125 0.4375 0  0.34375 0.4375 0  0.375 0.4375 0  0.40625 0.4375 0  0.4375 0.4375 0  0.46875 0.4375 0  0.5 0.4375 0  0.53125 0.4375 0  0.5625 0.4375 0  0.59375 0.4375 0  0.625 0.4375 0  0.65625 0.4375 0  0.6875 0.4375 0  0.71875 0.4375 0  0.75 0.4375 0  0.78125 0.4375 0  0.8125 0.4375 0  0.84375 0.4375 0  0.875 0.4375 0  0.90625 0.4375 0  0.9375 0.4375 0  0.96875 0.4375 0  1 0.4375 0  0 0.46875 0  0.03125 0.46875 0  0.0625 0.46875 0  0.09375 0.46875 0  0.125 0.46875 0  0.15625 0.46875 0  0.1875 0.46875 0  0.21875 0.46875 0  0.25 0.46875 0  0.28125 0.46875 0  0.3125 0.46875 0  0.34375 0.46875 0  0.375 0.46875 0  0.40625 0.46875 0  0.4375 0.46875 0  0.46875 0.46875 0  0.5 0.46875 0  0.53125 0.46875 0  0.5625 0.46875 0  0.59375 0.46875 0  0.625 0.46875 0  0.65625 0.46875 0  0.6875 0.46875 0  0.71875 0.46875 0  0.75 0.46875 0  0.78125 0.46875 0  0.8125 0.46875 0  0.84375 0.46875 0  0.875 0.46875 0  0.90625 0.46875 0  0.9375 0.46875 0  0.96875 0.46875 0  1 0.46875 0  0 0.5 0  0.03125 0.5 0  0.0625 0.5 0  0.09375 0.5 0  0.125 0.5 0  0.15625 0.5 0  0.1875 0.5 0  0.21875 0.5 0  0.25 0.5 0  0.28125 0.5 0  0.3125 0.5 0  0.34375 0.5 0  0.375 0.5 0  0.40625 0.5 0  0.4375 0.5 0  0.46875 0.5 0  0.5 0.5 0  0.53125 0.5 0  0.5625 0.5 0  0.59375 0.5 0  0.625 0.5 0  0.65625 0.5 0  0.6875 0.5 0  0.71875 0.5 0  0.75 0.5 0  0.78125 0.5 0  0.8125 0.5 0  0.84375 0.5 0  0.875 0.5 0  0.90625 0.5 0  0.9375 0.5 0  0.96875 0.5 0  1 0.5 0  0 0.53125 0  0.03125 0.53125 0  0.0625 0.53125 0  0.09375 0.53125 0  0.125 0.53125 0  0.15625 0.53125 0  0.1875 0.53125 0  0.21875 0.53125 0  0.25 0.53125 0  0.28125 0.53125 0  0.3125 0.53125 0  0.34375 0.53125 0  0.375 0.53125 0  0.40625 0.53125 0  0.4375 0.53125 0  0.46875 0.53125 0  0.5 0.53125 0  0.53125 0.53125 0  0.5625 0.53125 0  0.59375 0.53125 0  0.625 0.53125 0  0.65625 0.53125 0  0.6875 0.53125 0  0.71875 0.53125 0  0.75 0.53125 0  0.78125 0.531
[...]
<PointData  Scalars="phi"> 
<DataArray  type="Float64"  Name="phi"  format="ascii">0.0000000000000000e+00  0.0000000000000000e+00  0.0000000000000000e+00  0.0000000000000000e+00  0.0000000000000000e+00  0.0000000000000000e+00  0.0000000000000000e+00  0.0000000000000000e+00  0.0000000000000000e+00  0.0000000000000000e+00  0.0000000000000000e+00  0.0000000000000000e+00  0.0000000000000000e+00  0.0000000000000000e+00  0.0000000000000000e+00  0.0000000000000000e+00  0.0000000000000000e+00  0.0000000000000000e+00  0.0000000000000000e+00  0.0000000000000000e+00  0.0000000000000000e+00  0.0000000000000000e+00  0.0000000000000000e+00  0.0000000000000000e+00  0.0000000000000000e+00  0.0000000000000000e+00  0.0000000000000000e+00  0.0000000000000000e+00  0.0000000000000000e+00  0.0000000000000000e+00  0.0000000000000000e+00  0.0000000000000000e+00  0.0000000000000000e+00  0.0000000000000000e+00  -8.0234744325557540e-21  8.4001822562314980e-13  3.3098760937634231e-12  8.1170693314020911e-12  1.5853216537835585e-11  2.6964642045275189e-11  4.1728586250545284e-11  6.0236143175161472e-11  8.2382698766416090e-11  1.0786632473633857e-10  1.3619426047874218e-10  1.6669729387396038e-10  1.9855153969804647e-10  2.3080682251854173e-10  2.6242060998983389e-10  2.9229622212154795e-10  3.1932387075638617e-10  3.4242296774766943e-10  3.6058408469554135e-10  3.7290895387123296e-10  3.7864696912040568e-10  3.7722677485087800e-10  3.6828171644841914e-10  3.5166816090829302e-10  3.2747597591894270e-10  2.9603077459841705e-10  2.5788789417605176e-10  2.1381850477596684e-10  1.6478883170602312e-10  1.1193453634822011e-10  5.6534935231451549e-11  0.0000000000000000e+00  0.0000000000000000e+00  -8.4001825753664278e-13  -3.1741965231124555e-20  4.0977930705262823e-12  1.2868727541693530e-11  2.7498096196955415e-11  4.8882163430535435e-11  7.7580578705645126e-11  1.1378224049521891e-10  1.5728611550447207e-10  2.0749790699621063e-10  2.6344283296177179e-10  3.2379413771943251e-10  3.8691634058236925e-10  4.5092164476908655e-10  5.1373741027122019e-10  5.7318215556254523e-10  6.2704721157969980e-10  6.7318092048491924e-10  7.0957216035487741e-10  7.3442998966996442e-10  7.4625634223331320e-10  7.4390895933871158e-10  7.2665211289250467e-10  6.9419313861944485e-10  6.4670334815601980e-10  5.8482250860877947e-10  5.0964675820913653e-10  4.2270056928727374e-10  3.2589420170570752e-10  2.2146906784603312e-10  1.1193453634822042e-10  0.0000000000000000e+00  0.0000000000000000e+00  -3.3098761412202584e-12  -4.0977931649432260e-12  -7.0217894249320330e-20  1.1107265776514960e-11  3.1006048311623854e-11  6.1048347921946877e-11  1.0208489065761980e-10  1.5441399611937074e-10  2.1775274365771443e-10  2.9123175125262051e-10  3.7341395005360112e-10  4.6233679424625071e-10  5.5557642553278327e-10  6.5033144854161049e-10  7.4352320057805544e-10  8.3190874577156964e-10  9.1220231493254434e-10  9.8120056794929409e-10  1.0359068887791242e-09  1.0736499407503598e-09  1.0921919117881812e-09  1.0898222582342165e-09  1.0654332986063158e-09  1.0185746956606454e-09  9.4948467252542794e-10  8.5909670919242231e-10  7.4902142981867180e-10  6.2150438660291666e-10  4.7936142726135083e-10  3.2589420170570908e-10  1.6478883170602436e-10  0.0000000000000000e+00  0.0000000000000000e+00  -8.1170693939340131e-12  -1.2868727666114130e-11  -1.1107265961590811e-11  -1.2195916781979266e-19  2.2835640247176433e-11  5.9214927209200933e-11  1.1029132534861210e-10  1.7648856330081215e-10  2.5746215708219573e-10  3.5209210540949523e-10  4.5850725814242888e-10  5.7414061995079921e-10  6.9581364011078800e-10  8.1984640243879998e-10  9.4218961038273166e-10  1.0585734003653359e-09  1.1646673448224622e-09  1.2562455509844443e-09  1.3293505400675797e-09  1.3804496130227093e-09  1.4065776729411779e-09  1.4054609710539619e-09  1.3756169545701186e-09  1.3164262938571562e-09  1.2281742199019283e-09  1.1120594703755591e-09  9.7017037719150490e-10  8.0542887421782270e-10  6.2150438660292090e-10  4.2270056928727875e-10  2.1381850477596997e-10  0.0000000000000000e+00  0.0000000000000000e+00  -1.5853216614831660e-11  -2.7498096350165165e-11  -3.1006048539535176e-11  -2.2835640547561621e-11  -1.8496834495651620e-19  3.9787955014502119e-11  9.7998314576856547e-11  1.7519978649639793e-10  2.7101164680262670e-10  3.8409414101172058e-10  5.1217795495931272e-10  6.5213184943637575e-10  8.0006606263045299e-10  9.5146768434802922e-10  1.1013629504252229e-09  1.2445003430811765e-09  1.3755475542830766e-09  1.4892948065663005e-09  1.5808567510969588e-09  1.6458651869613151e-09  1.6806451681507995e-09  1.6823676734646582e-09  1.6491728865086233e-09  1.5802592347576134e-09  1.4759346255536007e-09  1.3376277417700620e-09  1.1678587615439591e-09  9.7017037719151400e-10  7.4902142981868390e-10  5.0964675820914718e-10  2.5788789417605786e-10  0.0000000000000000e+00  0.0000000000000000e+00  -2.6964642135986723e-11  -4.8882163611045135e-11  -6.1048348190479586e-11  -5.9214927563136628e-11  -3.9787955450400943e-11  -2.5681761415528663e-19  6.1950750220759497e-11  1.4680011640529476e-10  2.5416044036598805e-10  3.8250847937334529e-10  5.2921941283597489e-10  6.9064590237591628e-10  8.6223938888421812e-10  1.0387091602191485e-09  1.2142132426330162e-09  1.3825739152843165e-09  1.5375096687969377e-09  1.6728747636670940e-09  1.7828972182596773e-09  1.8624060820190932e-09  1.9070392266460785e-09  1.9134236021073209e-09  1.8793209281033467e-09  1.8037330854750593e-09  1.6869629854574699e-09  1.5306283676271527e-09  1.3376277417700775e-09  1.1120594703755823e-09  8.5909670919244609e-10  5.8482250860879850e-10  2.9603077459842749e-10  0.0000000000000000e+00  0.0000000000000000e+00  -4.1728586354092554e-11  -7.7580578911704541e-11  -1.0208489096417093e-10  -1.1029132575266872e-10  -9.7998315074495396e-11  -6.1950750807158030e-11  -3.3474144510897080e-19  8.8780353797199703e-11  2.0402780420686610e-10  3.4407609802598539e-10  5.0599315359632467e-10  6.8567051499906796e-10  8.7796113955128755e-10  1.0768604282639075e-09  1.2757237172731735e-09  1.4675120148582628e-09  1.6450566492783677e-09  1.8013327306479179e-09  1.9297309550152684e-09  2.0243173054255069e-09  2.0800706322647406e-09  2.0930889073475835e-09  2.0607561118339484e-09  1.9818631921072149e-09  1.8566782428860574e-09  1.6869629854574943e-09  1.4759346255536391e-09  1.2281742199019715e-09  9.4948467252546785e-10  6.4670334815604999e-10  3.2747597591895894e-10  0.0000000000000000e+00  0.0000000000000000e+00  -6.0236143290541936e-11  -1.1378224072483321e-10  -1.5441399646097320e-10  -1.7648856375107969e-10  -1.7519978705096238e-10  -1.4680011705878500e-10  -8.8780354543293506e-11  -4.1574259234291027e-19  1.1923710609144103e-10  2.6716506509641189e-10  4.4059707131372953e-10  6.3502412512836501e-10  8.4476774142700364e-10  1.0631809954193909e-09  1.2828903568791893e-09  1.4960691642665206e-09  1.6947323399033322e-09  1.8710410951343376e-09  2.0176059532801868e-09  2.1277764446438682e-09  2.1959063010943088e-09  2.2175838798113950e-09  2.1898188420319667e-09  2.1111777531679225e-09  1.9818631921072500e-09  1.8037330854751168e-09  1.5802592347576821e-09  1.3164262938572255e-09  1.0185746956607058e-09  6.9419313861948931e-10  3.5166816090831649e-10  0.0000000000000000e+00  0.0000000000000000e+00  -8.2382698892513933e-11  -1.5728611575542088e-10  -2.1775274403106521e-10  -2.5746215757432115e-10  -2.7101164740875632e-10  -2.5416044108025453e-10  -2.0402780502236181e-10  -1.1923710700028505e-10  -4.9670713074774014e-19  1.5186279380017754e-10  3.3296518138478914e-10  5.3846243630844082e-10  7.6221712015277982e-10  9.9701800450345200e-10  1.2348437576871176e-09  1.4671614047181027e-09  1.6852481995506077e-09  1.8805246137986331e-09  2.0448856822911920e-09  2.1710179712752107e-09  2.2526899490361551e-09  2.2850045216371027e-09  2.2646039107623430e-09  2.1898188420320134e-09  2.0607561118340286e-09  1.8793209281034464e-09  1.6491728865087298e-09  1.3756169545702195e-09  1.0654332986064012e-09  7.2665211289256619e-10  3.6828171644845134e-10  0.0000000000000000e+00  0.0000000000000000e+00  -1.0786632487193534e-10  -2.0749790726606923e-10  -2.9123175165411253e-10  -3.5209210593872436e-10  -3.8409414166356051e-10  -3.8250848014148946e-10  -3.4407609890300787e-10  -2.6716506607383952e-10  -1.5186279486857167e-10  -5.7452400545307914e-19  1.8489481736133111e-10  3.9770885679179039e-10  6.3192231282377301e-10  8.7984287402473226e-10  1.1328885674288975e-09  1.3819082174530960e-09  1.6175273069704689e-09  1.8305060195296630e-09  2.0120957390996451e-09  2.1543803073457884e-09  2.2505888876531281e-09  2.2953683390542271e-09  2.2850045216371622e-09  2.2175838798115000e-09  2.0930889073477187e-09  1.9134236021074714e-09  1.6823676734648090e-09  1.4054609710541000e-09  1.0898222582343307e-09  7.4390895933879285e-10  3.7722677485092019e-10  0.0000000000000000e+00  0.0000000000000000e+00  -1.3619426062252853e-10  -2.6344283324793441e-10  -3.7341395047935776e-10  -4.5850725870365211e-10  -5.1217795565057008e-10  -5.2921941365058184e-10  -5.0599315452640893e-10  -4.4059707235030755e-10  -3.3296518251785318e-10  -1.8489481857994604e-10  -6.4620449926022893e-19  2.1640744675570292e-10  4.5750465348005348e-10  7.1520533500627360e-10  9.8045892850775804e-10  1.2435898606764030e-09  1.4946640040043442e-09  1.7238683037792745e-09  1.9218890209070611e-09  2.0802740567194275e-09  2.1917654046043933e-09  2.2505888876532009e-09  2.2526899490362862e-09  2.1959063010944821e-09  2.0800706322649396e-09  1.9070392266462865e-09  1.6806451681510007e-09  1.4065776729413578e-09  1.0921919117883278e-09  7.4625634223341650e-10  3.7864696912045899e-10  0.0000000000000000e+00  0.0000000000000000e+00  -1.6669729402454866e-10  -3.2379413801913752e-10  -4.6233679469216331e-10  -5.7414062053860078e-10  -6.5213185016038057e-10  -6.9064590322912609e-10  -6.8567051597324054e-10  -6.3502412621409343e-10  -5.3846243749524492e-10  -3.9770885806821817e-10  -2.1640744810944120e-10  -7.0899683692502013e-19  2.4446818610800229e-10  5.0860653051455537e-10  7.8299158606979758e-10  1.0575217592283272e-09  1.3218007764667078e-09  1.5655352225375252e-09  1.7789309043552844e-09  1.9530728127870139e-09  2.0802740567195127e-09  2.1543803073459452e-09  2.1710179712754224e-09  2.1277764446441184e-09  2.0243173054257765e-09  1.8624060820193649e-09  1.6458651869615715e-09  1.3804496130229349e-09  1.0736499407505413e-09  7.3442998967009139e-10  3.7290895387129831e-10  0.0000000000000000e+00  0.0000000000000000e+00  -1.9855153985398407e-10  -3.8691634089272571e-10  -5.5557642599455064e-10  -6.9581364071949843e-10  -8.0006606338022201e-10  -8.6223938976780201e-10  -8.7796114056015342e-10  -8.4476774255141227e-10  -7.6221712138187973e-10  -6.3192231414570585e-10  -4.5750465488206873e-10  -2.4446818757658046e-10  -7.6049170586155968e-19  2.6729596168795095e-10  5.4772148729000708e-10  8.3085076908451972e-10  1.1059271447089641e-09  1.3622747033750282e-09  1.5897089718383020e-09  1.7789309043553808e-09  1.9218890209072418e-09  2.0120957390998941e-09  2.0448856822914923e-09  2.0176059532805197e-09  1.9297309550156142e-09  1.7828972182600166e-09  1.5808567510972735e-09  1.3293505400678533e-09  1.0359068887793426e-09  7.0957216035502919e-10  3.6058408469561921e-10  0.0000000000000000e+00  0.0000000000000000e+00  -2.3080682267832511e-10  -4.5092164508710203e-10  -6.5033144901478055e-10  -8.1984640306255030e-10  -9.5146768511633360e-10  -1.0387091611245878e-09  -1.0768604292977406e-09  -1.0631809965716403e-09  -9.9701800576299930e-10  -8.7984287537942766e-10  -7.1520533644305190e-10  -5.0860653201956324e-10  -2.6729596324668054e-10  -7.9871451943576324e-19  2.8340767979695493e-10  5.7228113812142209e-10  8.5560832393820676e-10  1.1224327786815767e-09  1.3622747033751338e-09  1.5655352225377258e-09  1.7238683037795566e-09  1.8305060195300098e-09  1.8805246137990260e-09  1.8710410951347566e-09  1.8013327306483421e-09  1.6728747636675029e-09  1.4892948065666750e-09  1.2562455509847667e-09  9.8120056794954969e-10  6.7318092048509646e-10  3.4242296774776001e-10  0.0000000000000000e+00  0.0000000000000000e+00  -2.6242061015192303e-10  -5.1373741059382962e-10  -7.4352320105806763e-10  -9.4218961101551035e-10  -1.1013629512046584e-09  -1.2142132435515852e-09  -1.2757237183220110e-09  -1.2828903580481754e-09  -1.2348437589649750e-09  -1.1328885688033011e-09  -9.8045892996545459e-10  -7.8299158759673339e-10  -5.4772148887146370e-10  -2.8340768141769194e-10  -8.2220093623320713e-19  2.9174068330878164e-10  5.8065410367050201e-10  8.5560832393831853e-10  1.1059271447091802e-09  1.3218007764670166e-09  1.4946640040047310e-09  1.6175273069709156e-09  1.6852481995510944e-09  1.6947323399038379e-09  1.6450566492788704e-09  1.5375096687974161e-09  1.3755475542835105e-09  1.1646673448228331e-09  9.1220231493283685e-10  6.2704721157990184e-10  3.1932387075648925e-10  0.0000000000000000e+00  0.0000000000000000e+00  -2.9229622228438130e-10  -5.7318215588664070e-10  -8.3190874625379960e-10  -1.0585734010010470e-09  -1.2445003438642343e-09  -1.3825739162071658e-09  -1.4675120159120001e-09  -1.4960691654409817e-09  -1.4671614060019598e-09  -1.3819082188339679e-09  -1.2435898621409755e-09  -1.0575217607624817e-09  -8.3085077067346926e-10  -5.7228113974985482e-10  -2.9174068496100833e-10  -8.3005273797742890e-19  2.9174068330889678e-10  5.7228113812164791e-10  8.3085076908484759e-10  1.0575217592287445e-09  1.2435898606768937e-09  1.3819082174536411e-09  1.4671614047186813e-09  1.4960691642671106e-09  1.4675120148588412e-09  1.3825739152848614e-09  1.2445003430816668e-09  1.0585734003657530e-09  8.3190874577189720e-10  5.7318215556277085e-10  2.9229622212166293e-10  0.0000000000000000e+00  0.0000000000000000e+00  -3.1932387091839559e-10  -6.2704721190216003e-10  -9.1220231541234797e-10  -1.1646673454549832e-09  -1.3755475550622152e-09  -1.5375096697151796e-09  -1.6450566503268572e-09  -1.6947323410719575e-09  -1.6852482008281000e-09  -1.6175273083445102e-09  -1.4946640054616882e-09  -1.3218007779933060e-09  -1.1059271462901041e-09  -8.5560832555865244e-10  -5.8065410531464166e-10  -2.9174068496089325e-10  -8.2197186970069301e-19  2.8340767979729253e-10  5.4772148729044352e-10  7.8299158607031922e-10  9.8045892850834782e-10  1.1328885674295357e-09  1.2348437576877825e-09  1.2828903568798578e-09  1.2757237172738222e-09  1.2142132426336224e-09  1.1013629504257653e-09  9.4218961038319095e-10  7.4352320057841496e-10  5.1373741027146720e-10  2.6242060998995962e-10  0.0000000000000000e+00  0.0000000000000000e+00  -3.4242296790729528e-10  -6.7318092080264003e-10  -9.8120056842205242e-10  -1.2562455516076860e-09  -1.4892948073340193e-09  -1.6728747645718886e-09  -1.8013327316810653e-09  -1.8710410962858765e-09  -1.8805246150574614e-09  -1.8305060208836452e-09  -1.7238683052153587e-09  -1.5655352240418695e-09  -1.3622747049331353e-09  -1.1224327802784333e-09  -8.5560832555854057e-10  -5.7228113974962910e-10  -2.8340768141735440e-10  -7.9827158605766889e-19  2.6729596168848862e-10  5.0860653051517327e-10  7.1520533500695406e-10  8.7984287402545470e-10  9.9701800450419398e-10  1.0631809954201294e-09  1.0768604282646183e-09  1.0387091602198086e-09  9.5146768434861672e-10  8.1984640243929566e-10  6.5033144854199761e-10  4.5092164476935208e-10  2.3080682251867672e-10  0.0000000000000000e+00  0.0000000000000000e+00  -3.6058408485124755e-10  -7.0957216066480120e-10  -1.0359068892402877e-09  -1.3293505406755446e-09  -1.5808567518458693e-09  -1.7828972191423170e-09  -1.9297309560231309e-09  -2.0176059544035568e-09  -2.0448856835192413e-09  -2.0120957404205363e-09  -1.9218890223080635e-09  -1.7789309058228948e-09  -1.5897089733583784e-09  -1.3622747049330299e-09  -1.1059271462898880e-09  -8.3085077067314159e-10  -5.4772148887102737e-10  -2.6729596324614292e-10  -7.5986418905540274e-19  2.4446818610870457e-10  4.5750465348081232e-10  6.3192231282456741e-10  7.6221712015358725e-10  8.4476774142780042e-10  8.7796113955204959e-10  8.6223938888492216e-10  8.0006606263107721e-10  6.9581364011131295e-10  5.5557642553319231e-10  3.8691634058264940e-10  1.9855153969818879e-10  0.0000000000000000e+00  0.0000000000000000e+00  -3.7290895402152180e-10  -7.3442998996911005e-10  -1.0736499411954926e-09  -1.3804496136095491e-09  -1.6458651876842131e-09  -1.8624060828710871e-09  -2.0243173063983879e-09  -2.1277764457282614e-09  -2.1710179724606647e-09  -2.1543803086208795e-09  -2.0802740580718666e-09  -1.9530728142037679e-09  -1.7789309058227986e-09  -1.5655352240416690e-09  -1.3218007779929975e-09  -1.0575217607620644e-09  -7.8299158759621185e-10  -5.0860653201894533e-10  -2.4446818757587813e-10  -7.0822564100182008e-19  2.1640744675652452e-10  3.9770885679264140e-10  5.3846243630929850e-10  6.3502412512920573e-10  6.8567051499986795e-10  6.9064590237665226e-10  6.5213184943702622e-10  5.7414061995134474e-10  4.6233679424667506e-10  3.2379413771972275e-10  1.6669729387410777e-10  0.0000000000000000e+00  0.0000000000000000e+00  -3.7864696926383213e-10  -7.4625634251880456e-10  -1.0921919122130032e-09  -1.4065776735012494e-09  -1.6806451688407336e-09  -1.9070392274592330e-09  -2.0800706331932844e-09  -2.1959063021292958e-09  -2.2526899501676132e-09  -2.2505888888701540e-09  -2.1917654058952599e-09  -2.0802740580717814e-09  -1.9218890223078832e-09  -1.7238683052150768e-09  -1.4946640054613017e-09  -1.2435898621404850e-09  -9.8045892996486502e-10  -7.1520533644237154e-10  -4.5750465488130995e-10  -2.1640744810861963e-10  -6.4533866273141139e-19  1.8489481736222040e-10  3.3296518138567944e-10  4.4059707131459755e-10  5.0599315359714709e-10  5.2921941283672907e-10  5.1217795495997736e-10  4.5850725814298526e-10  3.7341395005403322e-10  2.6344283296206705e-10  1.3619426047889200e-10  0.0000000000000000e+00  0.0000000000000000e+00  -3.7722677498606372e-10  -7.4390895960780491e-10  -1.0898222586346447e-09  -1.4054609715818826e-09  -1.6823676741149969e-09  -1.9134236028738204e-09  -2.0930889082228634e-09  -2.2175838807870260e-09  -2.2850045227036851e-09  -2.2953683402014856e-09  -2.2505888888700816e-09  -2.1543803086207232e-09  -2.0120957404202877e-09  -1.8305060208832988e-09  -1.6175273083440637e-09  -1.3819082188334228e-09  -1.1328885688026629e-09  -8.7984287537870512e-10  -6.3192231414491135e-10  -3.9770885806736716e-10  -1.8489481857905672e-10  -5.7361671068375834e-19  1.5186279380108103e-10  2.6716506509728901e-10  3.4407609802681350e-10  3.8250847937410253e-10  3.8409414101238656e-10  3.5209210541005167e-10  2.9123175125305215e-10  2.0749790699650531e-10  1.0786632473648802e-10  0.0000000000000000e+00  0.0000000000000000e+00  -3.6828171657406570e-10  -7.2665211314261534e-10  -1.0654332989785040e-09  -1.3756169550608170e-09  -1.6491728871131188e-09  -1.8793209288158259e-09  -2.0607561126475542e-09  -2.1898188429388652e-09  -2.2646039117537992e-09  -2.2850045227036255e-09  -2.2526899501674821e-09  -2.1710179724604534e-09  -2.0448856835189415e-09  -1.8805246150570689e-09  -1.6852482008276134e-09  -1.4671614060013812e-09  -1.2348437589643100e-09  -9.9701800576225711e-10  -7.6221712138107220e-10  -5.3846243749438724e-10  -3.3296518251696287e-10  -1.5186279486766816e-10  -4.9581131932358497e-19  1.1923710609230761e-10  2.0402780420768191e-10  2.5416044036673231e-10  2.7101164680328007e-10  2.5746215708274089e-10  2.1775274365813683e-10  1.5728611550476026e-10  8.2382698766562204e-11  0.0000000000000000e+00  0.0000000000000000e+00  -3.5166816102319446e-10  -6.9419313884817197e-10  -1.0185746960010207e-09  -1.3164262943059215e-09  -1.5802592353104614e-09  -1.8037330861266766e-09  -1.9818631928513325e-09  -2.1111777539973775e-09  -2.1898188429388184e-09  -2.2175838807869213e-09  -2.1959063021291230e-09  -2.1277764457280121e-09  -2.0176059544032247e-09  -1.8710410962854583e-09  -1.6947323410714523e-09  -1.4960691654403921e-09  -1.2828903580475068e-09  -1.0631809965709018e-09  -8.4476774255061559e-10  -6.3502412621325281e-10  -4.4059707234943942e-10  -2.6716506607296240e-10  -1.1923710699941850e-10  -4.1490674830691588e-19  8.8780353