<?xml version="1.0"?>
<VTKFile type="UnstructuredGrid"  version="0.1"  >
<UnstructuredGrid>
<Piece  NumberOfPoints="1089" NumberOfCells="2048">
<Points>
<DataArray  type="Float64"  NumberOfComponents="3"  format="ascii">0 0 0  0.03125 0 0  0.0625 0 0  0.09375 0 0  0.125 0 0  0.15625 0 0  0.1875 0 0  0.21875 0 0  0.25 0 0  0.28125 0 0  0.3125 0 0  0.34375 0 0  0.375 0 0  0.40625 0 0  0.4375 0 0  0.46875 0 0  0.5 0 0  0.53125 0 0  0.5625 0 0  0.59375 0 0  0.625 0 0  0.65625 0 0  0.6875 0 0  0.71875 0 0  0.75 0 0  0.78125 0 0  0.8125 0 0  0.84375 0 0  0.875 0 0  0.90625 0 0  0.9375 0 0  0.96875 0 0  1 0 0  0 0.03125 0  0.03125 0.03125 0  0.0625 0.03125 0  0.09375 0.03125 0  0.125 0.03125 0  0.15625 0.03125 0  0.1875 0.03125 0  0.21875 0.03125 0  0.25 0.03125 0  0.28125 0.03125 0  0.3125 0.03125 0  0.34375 0.03125 0  0.375 0.03125 0  0.40625 0.03125 0  0.4375 0.03125 0  0.46875 0.03125 0  0.5 0.03125 0  0.53125 0.03125 0  0.5625 0.03125 0  0.59375 0.03125 0  0.625 0.03125 0  0.65625 0.03125 0  0.6875 0.03125 0  0.71875 0.03125 0  0.75 0.03125 0  0.78125 0.03125 0  0.8125 0.03125 0  0.84375 0.03125 0  0.875 0.03125 0  0.90625 0.03125 0  0.9375 0.03125 0  0.96875 0.03125 0  1 0.03125 0  0 0.0625 0  0.03125 0.0625 0  0.0625 0.0625 0  0.09375 0.0625 0  0.125 0.0625 0  0.15625 0.0625 0  0.1875 0.0625 0  0.21875 0.0625 0  0.25 0.0625 0  0.28125 0.0625 0  0.3125 0.0625 0  0.34375 0.0625 0  0.375 0.0625 0  0.40625 0.0625 0  0.4375 0.0625 0  0.46875 0.0625 0  0.5 0.0625 0  0.53125 0.0625 0  0.5625 0.0625 0  0.59375 0.0625 0  0.625 0.0625 0  0.65625 0.0625 0  0.6875 0.0625 0  0.71875 0.0625 0  0.75 0.0625 0  0.78125 0.0625 0  0.8125 0.0625 0  0.84375 0.0625 0  0.875 0.0625 0  0.90625 0.0625 0  0.9375 0.0625 0  0.96875 0.0625 0  1 0.0625 0  0 0.09375 0  0.03125 0.09375 0  0.0625 0.09375 0  0.09375 0.09375 0  0.125 0.09375 0  0.15625 0.09375 0  0.1875 0.09375 0  0.21875 0.09375 0  0.25 0.09375 0  0.28125 0.09375 0  0.3125 0.09375 0  0.34375 0.09375 0  0.375 0.09375 0  0.40625 0.09375 0  0.4375 0.09375 0  0.46875 0.09375 0  0.5 0.09375 0  0.53125 0.09375 0  0.5625 0.09375 0  0.59375 0.09375 0  0.625 0.09375 0  0.65625 0.09375 0  0.6875 0.09375 0  0.71875 0.09375 0  0.75 0.09375 0  0.78125 0.09375 0  0.8125 0.09375 0  0.84375 0.09375 0  0.875 0.09375 0  0.90625 0.09375 0  0.9375 0.09375 0  0.96875 0.09375 0  1 0.09375 0  0 0.125 0  0.03125 0.125 0  0.0625 0.125 0  0.09375 0.125 0  0.125 0.125 0  0.15625 0.125 0  0.1875 0.125 0  0.21875 0.125 0  0.25 0.125 0  0.28125 0.125 0  0.3125 0.125 0  0.34375 0.125 0  0.375 0.125 0  0.40625 0.125 0  0.4375 0.125 0  0.46875 0.125 0  0.5 0.125 0  0.53125 0.125 0  0.5625 0.125 0  0.59375 0.125 0  0.625 0.125 0  0.65625 0.125 0  0.6875 0.125 0  0.71875 0.125 0  0.75 0.125 0  0.78125 0.125 0  0.8125 0.125 0  0.84375 0.125 0  0.875 0.125 0  0.90625 0.125 0  0.9375 0.125 0  0.96875 0.125 0  1 0.125 0  0 0.15625 0  0.03125 0.15625 0  0.0625 0.15625 0  0.09375 0.15625 0  0.125 0.15625 0  0.15625 0.15625 0  0.1875 0.15625 0  0.21875 0.15625 0  0.25 0.15625 0  0.28125 0.15625 0  0.3125 0.15625 0  0.34375 0.15625 0  0.375 0.15625 0  0.40625 0.15625 0  0.4375 0.15625 0  0.46875 0.15625 0  0.5 0.15625 0  0.53125 0.15625 0  0.5625 0.15625 0  0.59375 0.15625 0  0.625 0.15625 0  0.65625 0.15625 0  0.6875 0.15625 0  0.71875 0.15625 0  0.75 0.15625 0  0.78125 0.15625 0  0.8125 0.15625 0  0.84375 0.15625 0  0.875 0.15625 0  0.90625 0.15625 0  0.9375 0.15625 0  0.96875 0.15625 0  1 0.15625 0  0 0.1875 0  0.03125 0.1875 0  0.0625 0.1875 0  0.09375 0.1875 0  0.125 0.1875 0  0.15625 0.1875 0  0.1875 0.1875 0  0.21875 0.1875 0  0.25 0.1875 0  0.28125 0.1875 0  0.3125 0.1875 0  0.34375 0.1875 0  0.375 0.1875 0  0.40625 0.1875 0  0.4375 0.1875 0  0.46875 0.1875 0  0.5 0.1875 0  0.53125 0.1875 0  0.5625 0.1875 0  0.59375 0.1875 0  0.625 0.1875 0  0.65625 0.1875 0  0.6875 0.1875 0  0.71875 0.1875 0  0.75 0.1875 0  0.78125 0.1875 0  0.8125 0.1875 0  0.84375 0.1875 0  0.875 0.1875 0  0.90625 0.1875 0  0.9375 0.1875 0  0.96875 0.1875 0  1 0.1875 0  0 0.21875 0  0.03125 0.21875 0  0.0625 0.21875 0  0.09375 0.21875 0  0.125 0.21875 0  0.15625 0.21875 0  0.1875 0.21875 0  0.21875 0.21875 0  0.25 0.21875 0  0.28125 0.21875 0  0.3125 0.21875 0  0.34375 0.21875 0  0.375 0.21875 0  0.40625 0.21875 0  0.4375 0.21875 0  0.46875 0.21875 0  0.5 0.21875 0  0.53125 0.21875 0  0.5625 0.21875 0  0.59375 0.21875 0  0.625 0.21875 0  0.65625 0.21875 0  0.6875 0.21875 0  0.71875 0.21875 0  0.75 0.21875 0  0.78125 0.21875 0  0.8125 0.21875 0  0.84375 0.21875 0  0.875 0.21875 0  0.90625 0.21875 0  0.9375 0.21875 0  0.96875 0.21875 0  1 0.21875 0  0 0.25 0  0.03125 0.25 0  0.0625 0.25 0  0.09375 0.25 0  0.125 0.25 0  0.15625 0.25 0  0.1875 0.25 0  0.21875 0.25 0  0.25 0.25 0  0.28125 0.25 0  0.3125 0.25 0  0.34375 0.25 0  0.375 0.25 0  0.40625 0.25 0  0.4375 0.25 0  0.46875 0.25 0  0.5 0.25 0  0.53125 0.25 0  0.5625 0.25 0  0.59375 0.25 0  0.625 0.25 0  0.65625 0.25 0  0.6875 0.25 0  0.71875 0.25 0  0.75 0.25 0  0.78125 0.25 0  0.8125 0.25 0  0.84375 0.25 0  0.875 0.25 0  0.90625 0.25 0  0.9375 0.25 0  0.96875 0.25 0  1 0.25 0  0 0.28125 0  0.03125 0.28125 0  0.0625 0.28125 0  0.09375 0.28125 0  0.125 0.28125 0  0.15625 0.28125 0  0.1875 0.28125 0  0.21875 0.28125 0  0.25 0.28125 0  0.28125 0.28125 0  0.3125 0.28125 0  0.34375 0.28125 0  0.375 0.28125 0  0.40625 0.28125 0  0.4375 0.28125 0  0.46875 0.28125 0  0.5 0.28125 0  0.53125 0.28125 0  0.5625 0.28125 0  0.59375 0.28125 0  0.625 0.28125 0  0.65625 0.28125 0  0.6875 0.28125 0  0.71875 0.28125 0  0.75 0.28125 0  0.78125 0.28125 0  0.8125 0.28125 0  0.84375 0.28125 0  0.875 0.28125 0  0.90625 0.28125 0  0.9375 0.28125 0  0.96875 0.28125 0  1 0.28125 0  0 0.3125 0  0.03125 0.3125 0  0.0625 0.3125 0  0.09375 0.3125 0  0.125 0.3125 0  0.15625 0.3125 0  0.1875 0.3125 0  0.21875 0.3125 0  0.25 0.3125 0  0.28125 0.3125 0  0.3125 0.3125 0  0.34375 0.3125 0  0.375 0.3125 0  0.40625 0.3125 0  0.4375 0.3125 0  0.46875 0.3125 0  0.5 0.3125 0  0.53125 0.3125 0  0.5625 0.3125 0  0.59375 0.3125 0  0.625 0.3125 0  0.65625 0.3125 0  0.6875 0.3125 0  0.71875 0.3125 0  0.75 0.3125 0  0.78125 0.3125 0  0.8125 0.3125 0  0.84375 0.3125 0  0.875 0.3125 0  0.90625 0.3125 0  0.9375 0.3125 0  0.96875 0.3125 0  1 0.3125 0  0 0.34375 0  0.03125 0.34375 0  0.0625 0.34375 0  0.09375 0.34375 0  0.125 0.34375 0  0.15625 0.34375 0  0.1875 0.34375 0  0.21875 0.34375 0  0.25 0.34375 0  0.28125 0.34375 0  0.3125 0.34375 0  0.34375 0.34375 0  0.375 0.34375 0  0.40625 0.34375 0  0.4375 0.34375 0  0.46875 0.34375 0  0.5 0.34375 0  0.53125 0.34375 0  0.5625 0.34375 0  0.59375 0.34375 0  0.625 0.34375 0  0.65625 0.34375 0  0.6875 0.34375 0  0.71875 0.34375 0  0.75 0.34375 0  0.78125 0.34375 0  0.8125 0.34375 0  0.84375 0.34375 0  0.875 0.34375 0  0.90625 0.34375 0  0.9375 0.34375 0  0.96875 0.34375 0  1 0.34375 0  0 0.375 0  0.03125 0.375 0  0.0625 0.375 0  0.09375 0.375 0  0.125 0.375 0  0.15625 0.375 0  0.1875 0.375 0  0.21875 0.375 0  0.25 0.375 0  0.28125 0.375 0  0.3125 0.375 0  0.34375 0.375 0  0.375 0.375 0  0.40625 0.375 0  0.4375 0.375 0  0.46875 0.375 0  0.5 0.375 0  0.53125 0.375 0  0.5625 0.375 0  0.59375 0.375 0  0.625 0.375 0  0.65625 0.375 0  0.6875 0.375 0  0.71875 0.375 0  0.75 0.375 0  0.78125 0.375 0  0.8125 0.375 0  0.84375 0.375 0  0.875 0.375 0  0.90625 0.375 0  0.9375 0.375 0  0.96875 0.375 0  1 0.375 0  0 0.40625 0  0.03125 0.40625 0  0.0625 0.40625 0  0.09375 0.40625 0  0.125 0.40625 0  0.15625 0.40625 0  0.1875 0.40625 0  0.21875 0.40625 0  0.25 0.40625 0  0.28125 0.40625 0  0.3125 0.40625 0  0.34375 0.40625 0  0.375 0.40625 0  0.40625 0.40625 0  0.4375 0.40625 0  0.46875 0.40625 0  0.5 0.40625 0  0.53125 0.40625 0  0.5625 0.40625 0  0.59375 0.40625 0  0.625 0.40625 0  0.65625 0.40625 0  0.6875 0.40625 0  0.71875 0.40625 0  0.75 0.40625 0  0.78125 0.40625 0  0.8125 0.40625 0  0.84375 0.40625 0  0.875 0.40625 0  0.90625 0.40625 0  0.9375 0.40625 0  0.96875 0.40625 0  1 0.40625 0  0 0.4375 0  0.03125 0.4375 0  0.0625 0.4375 0  0.09375 0.4375 0  0.125 0.4375 0  0.15625 0.4375 0  0.1875 0.4375 0  0.21875 0.4375 0  0.25 0.4375 0  0.28125 0.4375 0  0.3125 0.4375 0  0.34375 0.4375 0  0.375 0.4375 0  0.40625 0.4375 0  0.4375 0.4375 0  0.46875 0.4375 0  0.5 0.4375 0  0.53125 0.4375 0  0.5625 0.4375 0  0.59375 0.4375 0  0.625 0.4375 0  0.65625 0.4375 0  0.6875 0.4375 0  0.71875 0.4375 0  0.75 0.4375 0  0.78125 0.4375 0  0.8125 0.4375 0  0.84375 0.4375 0  0.875 0.4375 0  0.90625 0.4375 0  0.9375 0.4375 0  0.96875 0.4375 0  1 0.4375 0  0 0.46875 0  0.03125 0.46875 0  0.0625 0.46875 0  0.09375 0.46875 0  0.125 0.46875 0  0.15625 0.46875 0  0.1875 0.46875 0  0.21875 0.46875 0  0.25 0.46875 0  0.28125 0.46875 0  0.3125 0.46875 0  0.34375 0.46875 0  0.375 0.46875 0  0.40625 0.46875 0  0.4375 0.46875 0  0.46875 0.46875 0  0.5 0.46875 0  0.53125 0.46875 0  0.5625 0.46875 0  0.59375 0.46875 0  0.625 0.46875 0  0.65625 0.46875 0  0.6875 0.46875 0  0.71875 0.46875 0  0.75 0.46875 0  0.78125 0.46875 0  0.8125 0.46875 0  0.84375 0.46875 0  0.875 0.46875 0  0.90625 0.46875 0  0.9375 0.46875 0  0.96875 0.46875 0  1 0.46875 0  0 0.5 0  0.03125 0.5 0  0.0625 0.5 0  0.09375 0.5 0  0.125 0.5 0  0.15625 0.5 0  0.1875 0.5 0  0.21875 0.5 0  0.25 0.5 0  0.28125 0.5 0  0.3125 0.5 0  0.34375 0.5 0  0.375 0.5 0  0.40625 0.5 0  0.4375 0.5 0  0.46875 0.5 0  0.5 0.5 0  0.53125 0.5 0  0.5625 0.5 0  0.59375 0.5 0  0.625 0.5 0  0.65625 0.5 0  0.6875 0.5 0  0.71875 0.5 0  0.75 0.5 0  0.78125 0.5 0  0.8125 0.5 0  0.84375 0.5 0  0.875 0.5 0  0.90625 0.5 0  0.9375 0.5 0  0.96875 0.5 0  1 0.5 0  0 0.53125 0  0.03125 0.53125 0  0.0625 0.53125 0  0.09375 0.53125 0  0.125 0.53125 0  0.15625 0.53125 0  0.1875 0.53125 0  0.21875 0.53125 0  0.25 0.53125 0  0.28125 0.53125 0  0.3125 0.53125 0  0.34375 0.53125 0  0.375 0.53125 0  0.40625 0.53125 0  0.4375 0.53125 0  0.46875 0.53125 0  0.5 0.53125 0  0.53125 0.53125 0  0.5625 0.53125 0  0.59375 0.53125 0  0.625 0.53125 0  0.65625 0.53125 0  0.6875 0.53125 0  0.71875 0.53125 0  0.75 0.53125 0  0.78125 0.531
[...]
<PointData  Scalars="phi"> 
<DataArray  type="Float64"  Name="phi"  format="ascii">0.0000000000000000e+00  0.0000000000000000e+00  0.0000000000000000e+00  0.0000000000000000e+00  0.0000000000000000e+00  0.0000000000000000e+00  0.0000000000000000e+00  0.0000000000000000e+00  0.0000000000000000e+00  0.0000000000000000e+00  0.0000000000000000e+00  0.0000000000000000e+00  0.0000000000000000e+00  0.0000000000000000e+00  0.0000000000000000e+00  0.0000000000000000e+00  0.0000000000000000e+00  0.0000000000000000e+00  0.0000000000000000e+00  0.0000000000000000e+00  0.0000000000000000e+00  0.0000000000000000e+00  0.0000000000000000e+00  0.0000000000000000e+00  0.0000000000000000e+00  0.0000000000000000e+00  0.0000000000000000e+00  0.0000000000000000e+00  0.0000000000000000e+00  0.0000000000000000e+00  0.0000000000000000e+00  0.0000000000000000e+00  0.0000000000000000e+00  0.0000000000000000e+00  -1.5798347408670161e-19  9.2793120719955494e-10  3.6562745783425782e-09  8.9665695360256482e-09  1.7512351127458184e-08  2.9786654213037799e-08  4.6095734066046738e-08  6.6540218245676211e-08  9.1004544208759343e-08  1.1915518505431014e-07  1.5044780981221123e-07  1.8414316928573954e-07  2.1933115370239619e-07  2.5496214605058370e-07  2.8988450669860396e-07  3.2288678149300830e-07  3.5274303626485314e-07  3.7825959281271843e-07  3.9832137997790537e-07  4.1193612090623280e-07  4.1827465399065198e-07  4.1670582783670611e-07  4.0682461521754913e-07  3.8847235106987142e-07  3.6174830827677619e-07  3.2701217732938573e-07  2.8487741484131181e-07  2.3619589853271877e-07  1.8203497500673684e-07  1.2364915944581074e-07  6.2451656555216722e-08  0.0000000000000000e+00  0.0000000000000000e+00  -9.2793120782751500e-10  -6.2418533998504587e-19  4.5266518355001406e-09  1.4215517416823017e-08  3.0375937587018565e-08  5.3997976204573932e-08  8.5699853418002331e-08  1.2569023706247648e-07  1.7374705449855942e-07  2.2921381225770240e-07  2.9101371152570070e-07  3.5768114365151776e-07  4.2740946504870699e-07  4.9811330963790193e-07  5.6750312315642535e-07  6.3316911890368010e-07  6.9267147730251626e-07  7.4363335656936702e-07  7.8383315876459908e-07  8.1129250955705810e-07  8.2435656110399709e-07  8.2176351044921524e-07  8.0270063112502261e-07  7.6684462977801259e-07  7.1438474683884852e-07  6.4602770489333511e-07  5.6298435963774451e-07  4.6693872860915752e-07  3.6000099186471544e-07  2.4464713908532222e-07  1.2364915944581111e-07  0.0000000000000000e+00  0.0000000000000000e+00  -3.6562745792754274e-09  -4.5266518373549219e-09  -1.3780312139133804e-18  1.2269708106738011e-08  3.4251018049066692e-08  6.7437425191817563e-08  1.1276868918747615e-07  1.7057435057868841e-07  2.4054187936662148e-07  3.2171090746895994e-07  4.1249396812863869e-07  5.1072312329702318e-07  6.1372084331360977e-07  7.1839254991654878e-07  8.2133737982640096e-07  9.1897300441109158e-07  1.0076697789548111e-06  1.0838891145189297e-06  1.1443207811521418e-06  1.1860138707185604e-06  1.2064963706380784e-06  1.2038787185610224e-06  1.1769373074699655e-06  1.1251746696176015e-06  1.0488539596168043e-06  9.4900635176025145e-07  8.2741103171925972e-07  6.8654856224871893e-07  5.2952948648009393e-07  3.6000099186471718e-07  1.8203497500673824e-07  0.0000000000000000e+00  0.0000000000000000e+00  -8.9665695372531296e-09  -1.4215517419263867e-08  -1.2269708110365203e-08  -2.3869741056688682e-18  2.5225527633729380e-08  6.5412126010538702e-08  1.2183397672494341e-07  1.9495915416464779e-07  2.8440712202311074e-07  3.8894066414008852e-07  5.0649280324850706e-07  6.3422789250325527e-07  7.6863472671209309e-07  9.0564826430942126e-07  1.0407954254819104e-06  1.1693594797241128e-06  1.2865567941578819e-06  1.3877192108951341e-06  1.4684750771732793e-06  1.5249219757207168e-06  1.5537844943873784e-06  1.5525509229076200e-06  1.5195835504160525e-06  1.4541982307059439e-06  1.3567100459042468e-06  1.2284431887960728e-06  1.0717045478017494e-06  8.8972185475909590e-07  6.8654856224872380e-07  4.6693872860916308e-07  2.3619589853272229e-07  0.0000000000000000e+00  0.0000000000000000e+00  -1.7512351128966981e-08  -3.0375937590019027e-08  -3.4251018053525738e-08  -2.5225527639598445e-08  -3.6078332332835772e-18  4.3952004268788135e-08  1.0825442842216316e-07  1.9353549916575366e-07  2.9937464747327350e-07  4.2429190548850987e-07  5.6578046165817086e-07  7.2038137373958078e-07  8.8379779292987547e-07  1.0510445058157069e-06  1.2166272138710345e-06  1.3747447963647739e-06  1.5195068871276950e-06  1.6451584741203990e-06  1.7463029273435433e-06  1.8181148873610769e-06  1.8565348029414087e-06  1.8584375787844489e-06  1.8217687575142880e-06  1.7456428772158279e-06  1.6304000695882678e-06  1.4776185377688353e-06  1.2900822117084500e-06  1.0717045478017594e-06  8.2741103171927328e-07  5.6298435963775658e-07  2.8487741484131863e-07  0.0000000000000000e+00  0.0000000000000000e+00  -2.9786654214811688e-08  -5.3997976208101752e-08  -6.7437425197060577e-08  -6.5412126017439890e-08  -4.3952004277272983e-08  -4.9887585821104850e-18  6.8434269496214161e-08  1.6216363268586067e-07  2.8075986089662260e-07  4.2254029487704939e-07  5.8460541075902667e-07  7.6292615424593669e-07  9.5247793213531921e-07  1.1474163274092972e-06  1.3412879685983919e-06  1.5272685991847750e-06  1.6984193120210986e-06  1.8479511789668676e-06  1.9694881457613090e-06  2.0573180907439177e-06  2.1066223626288397e-06  2.1136749013910502e-06  2.0760031772234182e-06  1.9925046117884033e-06  1.8635138178056216e-06  1.6908178410375619e-06  1.4776185377688527e-06  1.2284431887960989e-06  9.4900635176027814e-07  6.4602770489335639e-07  3.2701217732939748e-07  0.0000000000000000e+00  0.0000000000000000e+00  -4.6095734068066799e-08  -8.5699853422019888e-08  -1.1276868919344723e-07  -1.2183397673280314e-07  -1.0825442843182677e-07  -6.8434269507578060e-08  -6.4715854992990760e-18  9.8071752689192745e-08  2.2538054261739830e-07  3.8008573351591961e-07  5.5894838372938909e-07  7.5743006269369758e-07  9.6984505872346141e-07  1.1895603553972276e-06  1.4092358847765574e-06  1.6210959822818793e-06  1.8172217315189185e-06  1.9898530455854150e-06  2.1316889170829209e-06  2.2361742984592418e-06  2.2977625465660011e-06  2.3121432624780365e-06  2.2764266452353599e-06  2.1892771064821308e-06  2.0509907986636412e-06  1.8635138178056489e-06  1.6304000695883106e-06  1.3567100459042951e-06  1.0488539596168490e-06  7.1438474683888230e-07  3.6174830827679435e-07  0.0000000000000000e+00  0.0000000000000000e+00  -6.6540218247921073e-08  -1.2569023706694127e-07  -1.7057435058532436e-07  -1.9495915417338295e-07  -1.9353549917649385e-07  -1.6216363269849080e-07  -9.8071752703578316e-08  -7.9944428881217128e-18  1.3171598755058779e-07  2.9512549803647774e-07  4.8670820780602676e-07  7.0148322328977907e-07  9.3317777172228719e-07  1.1744492876189713e-06  1.4171525564261376e-06  1.6526418093567743e-06  1.8720962822832200e-06  2.0668568101275398e-06  2.2287605629909557e-06  2.3504610594866480e-06  2.4257211155330103e-06  2.4496673833307515e-06  2.4189965671634659e-06  2.3321252148844200e-06  2.1892771064821698e-06  1.9925046117884677e-06  1.7456428772159050e-06  1.4541982307060211e-06  1.1251746696176691e-06  7.6684462977806224e-07  3.8847235106989773e-07  0.0000000000000000e+00  0.0000000000000000e+00  -9.1004544211205455e-08  -1.7374705450342459e-07  -2.4054187937385270e-07  -2.8440712203262970e-07  -2.9937464748497754e-07  -2.8075986091038641e-07  -2.2538054263307531e-07  -1.3171598756801227e-07  -9.4945533376257669e-18  1.6775614997299196e-07  3.6781199269900693e-07  5.9481577248350085e-07  8.4198773102966988e-07  1.1013619414574171e-06  1.3640775914448068e-06  1.6207086788048773e-06  1.8616195696067325e-06  2.0773328361696172e-06  2.2588952799251980e-06  2.3982280722510618e-06  2.4884475141248365e-06  2.5241440012486291e-06  2.5016083435923354e-06  2.4189965671635184e-06  2.2764266452354497e-06  2.0760031772235300e-06  1.8217687575144071e-06  1.5195835504161656e-06  1.1769373074700610e-06  8.0270063112509143e-07  4.0682461521758519e-07  0.0000000000000000e+00  0.0000000000000000e+00  -1.1915518505693204e-07  -2.2921381226291737e-07  -3.2171090747671120e-07  -3.8894066415029219e-07  -4.2429190550105606e-07  -4.2254029489180370e-07  -3.8008573353272500e-07  -2.9512549805515651e-07  -1.6775614999334812e-07  -1.0910856802003680e-17  2.0424517373589090e-07  4.3933148357545834e-07  6.9805678778279236e-07  9.7192372822558886e-07  1.2514521768031269e-06  1.5265332323168117e-06  1.7868112779873576e-06  2.0220794949476512e-06  2.2226736718320055e-06  2.3798491766805746e-06  2.4861265640660982e-06  2.5355924545930224e-06  2.5241440012486960e-06  2.4496673833308688e-06  2.3121432624781881e-06  2.1136749013912188e-06  1.8584375787846181e-06  1.5525509229077748e-06  1.2038787185611506e-06  8.2176351044930629e-07  4.1670582783675339e-07  0.0000000000000000e+00  0.0000000000000000e+00  -1.5044780981498190e-07  -2.9101371153121171e-07  -4.1249396813683013e-07  -5.0649280325929032e-07  -5.6578046167143000e-07  -5.8460541077461948e-07  -5.5894838374714968e-07  -4.8670820782576729e-07  -3.6781199272052035e-07  -2.0424517375895323e-07  -1.2186745909378419e-17  2.3905578957745227e-07  5.0538527042914733e-07  7.9005587966715259e-07  1.0830698585800312e-06  1.3737390268654360e-06  1.6510895907678187e-06  1.9042815003241813e-06  2.1230262775751212e-06  2.2979872608448478e-06  2.4211468494361254e-06  2.4861265640661800e-06  2.4884475141249835e-06  2.4257211155332047e-06  2.2977625465662239e-06  2.1066223626290730e-06  1.8565348029416344e-06  1.5537844943875800e-06  1.2064963706382425e-06  8.2435656110411281e-07  4.1827465399071180e-07  0.0000000000000000e+00  0.0000000000000000e+00  -1.8414316928863073e-07  -3.5768114365726858e-07  -5.1072312330557122e-07  -6.3422789251450810e-07  -7.2038137375341738e-07  -7.6292615426220883e-07  -7.5743006271223203e-07  -7.0148322331037987e-07  -5.9481577250595178e-07  -4.3933148359952583e-07  -2.3905578960288808e-07  -1.3272237683875069e-17  2.7005325429249468e-07  5.6183526658722474e-07  8.6493637003020189e-07  1.1681977784992790e-06  1.4601351858606620e-06  1.7293779089944538e-06  1.9651067335473406e-06  2.1574736410119721e-06  2.2979872608449435e-06  2.3798491766807504e-06  2.3982280722512994e-06  2.3504610594869280e-06  2.2361742984595442e-06  2.0573180907442222e-06  1.8181148873613645e-06  1.5249219757209697e-06  1.1860138707187639e-06  8.1129250955720040e-07  4.1193612090630607e-07  0.0000000000000000e+00  0.0000000000000000e+00  -2.1933115370537872e-07  -4.2740946505463961e-07  -6.1372084332242802e-07  -7.6863472672370189e-07  -8.8379779294414988e-07  -9.5247793215210634e-07  -9.6984505874258255e-07  -9.3317777174354020e-07  -8.4198773105283168e-07  -6.9805678780762197e-07  -5.0538527045538852e-07  -2.7005325431987957e-07  -1.4125927576231322e-17  2.9527009406031594e-07  6.0504383910487806e-07  9.1780430469591419e-07  1.2216690789989703e-06  1.5048449528922554e-06  1.7560815866954076e-06  1.9651067335474490e-06  2.1230262775753232e-06  2.2226736718322846e-06  2.2588952799255347e-06  2.2287605629913293e-06  2.1316889170833084e-06  1.9694881457616893e-06  1.7463029273438963e-06  1.4684750771735862e-06  1.1443207811523864e-06  7.8383315876476934e-07  3.9832137997799267e-07  0.0000000000000000e+00  0.0000000000000000e+00  -2.5496214605362778e-07  -4.9811330964395705e-07  -7.1839254992554935e-07  -9.0564826432127008e-07  -1.0510445058302763e-06  -1.1474163274264316e-06  -1.1895603554167447e-06  -1.1744492876406645e-06  -1.1013619414810584e-06  -9.7192372825093251e-07  -7.9005587969393704e-07  -5.6183526661517651e-07  -2.9527009408915249e-07  -1.4716630355615820e-17  3.1306800049658221e-07  6.3217380527177784e-07  9.4515288672400210e-07  1.2399021269402257e-06  1.5048449528923738e-06  1.7293779089946787e-06  1.9042815003244976e-06  2.0220794949480404e-06  2.0773328361700576e-06  2.0668568101280094e-06  1.9898530455858906e-06  1.8479511789673263e-06  1.6451584741208189e-06  1.3877192108954958e-06  1.0838891145192164e-06  7.4363335656956565e-07  3.7825959281282002e-07  0.0000000000000000e+00  0.0000000000000000e+00  -2.8988450670167954e-07  -5.6750312316254326e-07  -8.2133737983549502e-07  -1.0407954254938823e-06  -1.2166272138857555e-06  -1.3412879686157046e-06  -1.4092358847962776e-06  -1.4171525564480567e-06  -1.3640775914686944e-06  -1.2514521768287344e-06  -1.0830698586070943e-06  -8.6493637005844451e-07  -6.0504383913401461e-07  -3.1306800052632148e-07  -1.5024135321283322e-17  3.2227310300825436e-07  6.4142305207990262e-07  9.4515288672412746e-07  1.2216690789992127e-06  1.4601351858610084e-06  1.6510895907682524e-06  1.7868112779878587e-06  1.8616195696072784e-06  1.8720962822837871e-06  1.8172217315194822e-06  1.6984193120216352e-06  1.5195068871281812e-06  1.2865567941582978e-06  1.0076697789551393e-06  6.9267147730274284e-07  3.5274303626496871e-07  0.0000000000000000e+00  0.0000000000000000e+00  -3.2288678149608546e-07  -6.3316911890980119e-07  -9.1897300442019051e-07  -1.1693594797360914e-06  -1.3747447963795030e-06  -1.5272685992020975e-06  -1.6210959823016105e-06  -1.6526418093787055e-06  -1.6207086788287785e-06  -1.5265332323424336e-06  -1.3737390268925141e-06  -1.1681977785275371e-06  -9.1780430472506652e-07  -6.3217380530153305e-07  -3.2227310303831863e-07  -1.5039991361461607e-17  3.2227310300838342e-07  6.3217380527203100e-07  9.1780430469628191e-07  1.1681977784997470e-06  1.3737390268659861e-06  1.5265332323174230e-06  1.6207086788055261e-06  1.6526418093574358e-06  1.6210959822825281e-06  1.5272685991853862e-06  1.3747447963653238e-06  1.1693594797245806e-06  9.1897300441145898e-07  6.3316911890393305e-07  3.2288678149313721e-07  0.0000000000000000e+00  0.0000000000000000e+00  -3.5274303626790220e-07  -6.9267147730858165e-07  -1.0076697789638273e-06  -1.2865567941697516e-06  -1.5195068871422904e-06  -1.6984193120382639e-06  -1.8172217315384706e-06  -1.8720962823049523e-06  -1.8616195696304166e-06  -1.7868112780127470e-06  -1.6510895907946510e-06  -1.4601351858886634e-06  -1.2216690790278577e-06  -9.4515288675348668e-07  -6.4142305210969340e-07  -3.2227310303818956e-07  -1.4767243134274762e-17  3.1306800049696083e-07  6.0504383910536754e-07  8.6493637003078687e-07  1.0830698585806925e-06  1.2514521768038427e-06  1.3640775914455524e-06  1.4171525564268873e-06  1.4092358847772850e-06  1.3412879685990718e-06  1.2166272138716427e-06  1.0407954254824254e-06  8.2133737982680415e-07  5.6750312315670233e-07  2.8988450669874494e-07  0.0000000000000000e+00  0.0000000000000000e+00  -3.7825959281571047e-07  -7.4363335657531891e-07  -1.0838891145277774e-06  -1.3877192109067821e-06  -1.6451584741347219e-06  -1.8479511789837124e-06  -1.9898530456046024e-06  -2.0668568101488663e-06  -2.0773328361928589e-06  -2.0220794949725666e-06  -1.9042815003505128e-06  -1.7293779090219324e-06  -1.5048449529206032e-06  -1.2399021269691595e-06  -9.4515288675336132e-07  -6.3217380530127989e-07  -3.1306800052594291e-07  -1.4219856987601359e-17  2.9527009406091887e-07  5.6183526658791772e-07  7.9005587966791566e-07  9.7192372822639926e-07  1.1013619414582493e-06  1.1744492876197995e-06  1.1895603553980249e-06  1.1474163274100375e-06  1.0510445058163659e-06  9.0564826430997712e-07  7.1839254991698288e-07  4.9811330963819966e-07  2.5496214605073505e-07  0.0000000000000000e+00  0.0000000000000000e+00  -3.9832137998081233e-07  -7.8383315877038178e-07  -1.1443207811607379e-06  -1.4684750771845961e-06  -1.7463029273574592e-06  -1.9694881457776754e-06  -2.1316889171015628e-06  -2.2287605630116767e-06  -2.2588952799477799e-06  -2.2226736718562133e-06  -2.1230262776007045e-06  -1.9651067335740387e-06  -1.7560815867229502e-06  -1.5048449529204851e-06  -1.2216690790276157e-06  -9.1780430472469902e-07  -6.0504383913352524e-07  -2.9527009408854956e-07  -1.3422217207937270e-17  2.7005325429328231e-07  5.0538527042999828e-07  6.9805678778368334e-07  8.4198773103057525e-07  9.3317777172318059e-07  9.6984505872431607e-07  9.5247793213610886e-07  8.8379779293057565e-07  7.6863472671268189e-07  6.1372084331406844e-07  4.2740946504902119e-07  2.1933115370255580e-07  0.0000000000000000e+00  0.0000000000000000e+00  -4.1193612090902774e-07  -8.1129250956261792e-07  -1.1860138707268253e-06  -1.5249219757315978e-06  -1.8181148873744571e-06  -2.0573180907596538e-06  -2.2361742984771663e-06  -2.3504610595065711e-06  -2.3982280722727746e-06  -2.3798491767038507e-06  -2.2979872608694465e-06  -2.1574736410376422e-06  -1.9651067335739307e-06  -1.7293779090217077e-06  -1.4601351858883174e-06  -1.1681977785270695e-06  -8.6493637005785953e-07  -5.6183526661448353e-07  -2.7005325431909199e-07  -1.2407380253237309e-17  2.3905578957837357e-07  4.3933148357641263e-07  5.9481577248446266e-07  7.0148322329072182e-07  7.5743006269459459e-07  7.6292615424676213e-07  7.2038137374031029e-07  6.3422789250386714e-07  5.1072312329749910e-07  3.5768114365184328e-07  1.8414316928590482e-07  0.0000000000000000e+00  0.0000000000000000e+00  -4.1827465399330928e-07  -8.2435656110928331e-07  -1.2064963706459367e-06  -1.5537844943977240e-06  -1.8565348029541309e-06  -2.1066223626438021e-06  -2.2977625465830438e-06  -2.4257211155519537e-06  -2.4884475141454817e-06  -2.4861265640882295e-06  -2.4211468494595145e-06  -2.2979872608693512e-06  -2.1230262776005025e-06  -1.9042815003501968e-06  -1.6510895907942178e-06  -1.3737390268919642e-06  -1.0830698586064332e-06  -7.9005587969317407e-07  -5.0538527045453757e-07  -2.3905578960196672e-07  -1.1215773209055547e-17  2.0424517373688820e-07  3.6781199270000543e-07  4.8670820780700032e-07  5.5894838373031151e-07  5.8460541075987243e-07  5.6578046165891636e-07  5.0649280324913101e-07  4.1249396812912324e-07  2.9101371152603184e-07  1.5044780981237923e-07  0.0000000000000000e+00  0.0000000000000000e+00  -4.1670582783920184e-07  -8.2176351045418001e-07  -1.2038787185684031e-06  -1.5525509229173369e-06  -1.8584375787963978e-06  -2.1136749014051033e-06  -2.3121432624940437e-06  -2.4496673833485439e-06  -2.5241440012680198e-06  -2.5355924546138091e-06  -2.4861265640881482e-06  -2.3798491767036753e-06  -2.2226736718559342e-06  -2.0220794949721783e-06  -1.7868112780122462e-06  -1.5265332323418224e-06  -1.2514521768280189e-06  -9.7192372825012233e-07  -6.9805678780673100e-07  -4.3933148359857149e-07  -2.0424517375795592e-07  -9.8933538857937281e-18  1.6775614997400517e-07  2.9512549803746141e-07  3.8008573351684832e-07  4.2254029487789859e-07  4.2429190548925668e-07  3.8894066414071257e-07  3.2171090746944392e-07  2.2921381225803285e-07  1.1915518505447774e-07  0.0000000000000000e+00  0.0000000000000000e+00  -4.0682461521986095e-07  -8.0270063112962168e-07  -1.1769373074768025e-06  -1.5195835504250539e-06  -1.8217687575253571e-06  -2.0760031772364366e-06  -2.2764266452501893e-06  -2.4189965671799492e-06  -2.5016083436102993e-06  -2.5241440012679529e-06  -2.4884475141453347e-06  -2.3982280722725370e-06  -2.2588952799474436e-06  -2.0773328361924189e-06  -1.8616195696298711e-06  -1.6207086788281296e-06  -1.3640775914679488e-06  -1.1013619414802260e-06  -8.4198773105192610e-07  -5.9481577250498997e-07  -3.6781199271952186e-07  -1.6775614999233485e-07  -8.4899441487806858e-18  1.3171598755155960e-07  2.2538054261831317e-07  2.8075986089745724e-07  2.9937464747400613e-07  2.8440712202372214e-07  2.4054187936709513e-07  1.7374705449888259e-07  9.1004544208923191e-08  0.0000000000000000e+00  0.0000000000000000e+00  -3.8847235107197900e-07  -7.6684462978220540e-07  -1.1251746696238348e-06  -1.4541982307141503e-06  -1.7456428772259198e-06  -1.9925046118002724e-06  -2.1892771064956512e-06  -2.3321252148994485e-06  -2.4189965671798967e-06  -2.4496673833484266e-06  -2.4257211155517598e-06  -2.3504610595062911e-06  -2.2287605630113044e-06  -2.0668568101483971e-06  -1.8720962823043856e-06  -1.6526418093780441e-06  -1.4171525564473069e-06  -1.1744492876398363e-06  -9.3317777174264668e-07  -7.0148322330943712e-07  -4.8670820782479384e-07  -2.9512549805417289e-07  -1.3171598756704045e-07  -7.0570651865102322e-18  9.8071752