<?xml version="1.0"?>
<VTKFile type="UnstructuredGrid"  version="0.1"  >
<UnstructuredGrid>
<Piece  NumberOfPoints="1089" NumberOfCells="2048">
<Points>
<DataArray  type="Float64"  NumberOfComponents="3"  format="ascii">0 0 0  0.03125 0 0  0.0625 0 0  0.09375 0 0  0.125 0 0  0.15625 0 0  0.1875 0 0  0.21875 0 0  0.25 0 0  0.28125 0 0  0.3125 0 0  0.34375 0 0  0.375 0 0  0.40625 0 0  0.4375 0 0  0.46875 0 0  0.5 0 0  0.53125 0 0  0.5625 0 0  0.59375 0 0  0.625 0 0  0.65625 0 0  0.6875 0 0  0.71875 0 0  0.75 0 0  0.78125 0 0  0.8125 0 0  0.84375 0 0  0.875 0 0  0.90625 0 0  0.9375 0 0  0.96875 0 0  1 0 0  0 0.03125 0  0.03125 0.03125 0  0.0625 0.03125 0  0.09375 0.03125 0  0.125 0.03125 0  0.15625 0.03125 0  0.1875 0.03125 0  0.21875 0.03125 0  0.25 0.03125 0  0.28125 0.03125 0  0.3125 0.03125 0  0.34375 0.03125 0  0.375 0.03125 0  0.40625 0.03125 0  0.4375 0.03125 0  0.46875 0.03125 0  0.5 0.03125 0  0.53125 0.03125 0  0.5625 0.03125 0  0.59375 0.03125 0  0.625 0.03125 0  0.65625 0.03125 0  0.6875 0.03125 0  0.71875 0.03125 0  0.75 0.03125 0  0.78125 0.03125 0  0.8125 0.03125 0  0.84375 0.03125 0  0.875 0.03125 0  0.90625 0.03125 0  0.9375 0.03125 0  0.96875 0.03125 0  1 0.03125 0  0 0.0625 0  0.03125 0.0625 0  0.0625 0.0625 0  0.09375 0.0625 0  0.125 0.0625 0  0.15625 0.0625 0  0.1875 0.0625 0  0.21875 0.0625 0  0.25 0.0625 0  0.28125 0.0625 0  0.3125 0.0625 0  0.34375 0.0625 0  0.375 0.0625 0  0.40625 0.0625 0  0.4375 0.0625 0  0.46875 0.0625 0  0.5 0.0625 0  0.53125 0.0625 0  0.5625 0.0625 0  0.59375 0.0625 0  0.625 0.0625 0  0.65625 0.0625 0  0.6875 0.0625 0  0.71875 0.0625 0  0.75 0.0625 0  0.78125 0.0625 0  0.8125 0.0625 0  0.84375 0.0625 0  0.875 0.0625 0  0.90625 0.0625 0  0.9375 0.0625 0  0.96875 0.0625 0  1 0.0625 0  0 0.09375 0  0.03125 0.09375 0  0.0625 0.09375 0  0.09375 0.09375 0  0.125 0.09375 0  0.15625 0.09375 0  0.1875 0.09375 0  0.21875 0.09375 0  0.25 0.09375 0  0.28125 0.09375 0  0.3125 0.09375 0  0.34375 0.09375 0  0.375 0.09375 0  0.40625 0.09375 0  0.4375 0.09375 0  0.46875 0.09375 0  0.5 0.09375 0  0.53125 0.09375 0  0.5625 0.09375 0  0.59375 0.09375 0  0.625 0.09375 0  0.65625 0.09375 0  0.6875 0.09375 0  0.71875 0.09375 0  0.75 0.09375 0  0.78125 0.09375 0  0.8125 0.09375 0  0.84375 0.09375 0  0.875 0.09375 0  0.90625 0.09375 0  0.9375 0.09375 0  0.96875 0.09375 0  1 0.09375 0  0 0.125 0  0.03125 0.125 0  0.0625 0.125 0  0.09375 0.125 0  0.125 0.125 0  0.15625 0.125 0  0.1875 0.125 0  0.21875 0.125 0  0.25 0.125 0  0.28125 0.125 0  0.3125 0.125 0  0.34375 0.125 0  0.375 0.125 0  0.40625 0.125 0  0.4375 0.125 0  0.46875 0.125 0  0.5 0.125 0  0.53125 0.125 0  0.5625 0.125 0  0.59375 0.125 0  0.625 0.125 0  0.65625 0.125 0  0.6875 0.125 0  0.71875 0.125 0  0.75 0.125 0  0.78125 0.125 0  0.8125 0.125 0  0.84375 0.125 0  0.875 0.125 0  0.90625 0.125 0  0.9375 0.125 0  0.96875 0.125 0  1 0.125 0  0 0.15625 0  0.03125 0.15625 0  0.0625 0.15625 0  0.09375 0.15625 0  0.125 0.15625 0  0.15625 0.15625 0  0.1875 0.15625 0  0.21875 0.15625 0  0.25 0.15625 0  0.28125 0.15625 0  0.3125 0.15625 0  0.34375 0.15625 0  0.375 0.15625 0  0.40625 0.15625 0  0.4375 0.15625 0  0.46875 0.15625 0  0.5 0.15625 0  0.53125 0.15625 0  0.5625 0.15625 0  0.59375 0.15625 0  0.625 0.15625 0  0.65625 0.15625 0  0.6875 0.15625 0  0.71875 0.15625 0  0.75 0.15625 0  0.78125 0.15625 0  0.8125 0.15625 0  0.84375 0.15625 0  0.875 0.15625 0  0.90625 0.15625 0  0.9375 0.15625 0  0.96875 0.15625 0  1 0.15625 0  0 0.1875 0  0.03125 0.1875 0  0.0625 0.1875 0  0.09375 0.1875 0  0.125 0.1875 0  0.15625 0.1875 0  0.1875 0.1875 0  0.21875 0.1875 0  0.25 0.1875 0  0.28125 0.1875 0  0.3125 0.1875 0  0.34375 0.1875 0  0.375 0.1875 0  0.40625 0.1875 0  0.4375 0.1875 0  0.46875 0.1875 0  0.5 0.1875 0  0.53125 0.1875 0  0.5625 0.1875 0  0.59375 0.1875 0  0.625 0.1875 0  0.65625 0.1875 0  0.6875 0.1875 0  0.71875 0.1875 0  0.75 0.1875 0  0.78125 0.1875 0  0.8125 0.1875 0  0.84375 0.1875 0  0.875 0.1875 0  0.90625 0.1875 0  0.9375 0.1875 0  0.96875 0.1875 0  1 0.1875 0  0 0.21875 0  0.03125 0.21875 0  0.0625 0.21875 0  0.09375 0.21875 0  0.125 0.21875 0  0.15625 0.21875 0  0.1875 0.21875 0  0.21875 0.21875 0  0.25 0.21875 0  0.28125 0.21875 0  0.3125 0.21875 0  0.34375 0.21875 0  0.375 0.21875 0  0.40625 0.21875 0  0.4375 0.21875 0  0.46875 0.21875 0  0.5 0.21875 0  0.53125 0.21875 0  0.5625 0.21875 0  0.59375 0.21875 0  0.625 0.21875 0  0.65625 0.21875 0  0.6875 0.21875 0  0.71875 0.21875 0  0.75 0.21875 0  0.78125 0.21875 0  0.8125 0.21875 0  0.84375 0.21875 0  0.875 0.21875 0  0.90625 0.21875 0  0.9375 0.21875 0  0.96875 0.21875 0  1 0.21875 0  0 0.25 0  0.03125 0.25 0  0.0625 0.25 0  0.09375 0.25 0  0.125 0.25 0  0.15625 0.25 0  0.1875 0.25 0  0.21875 0.25 0  0.25 0.25 0  0.28125 0.25 0  0.3125 0.25 0  0.34375 0.25 0  0.375 0.25 0  0.40625 0.25 0  0.4375 0.25 0  0.46875 0.25 0  0.5 0.25 0  0.53125 0.25 0  0.5625 0.25 0  0.59375 0.25 0  0.625 0.25 0  0.65625 0.25 0  0.6875 0.25 0  0.71875 0.25 0  0.75 0.25 0  0.78125 0.25 0  0.8125 0.25 0  0.84375 0.25 0  0.875 0.25 0  0.90625 0.25 0  0.9375 0.25 0  0.96875 0.25 0  1 0.25 0  0 0.28125 0  0.03125 0.28125 0  0.0625 0.28125 0  0.09375 0.28125 0  0.125 0.28125 0  0.15625 0.28125 0  0.1875 0.28125 0  0.21875 0.28125 0  0.25 0.28125 0  0.28125 0.28125 0  0.3125 0.28125 0  0.34375 0.28125 0  0.375 0.28125 0  0.40625 0.28125 0  0.4375 0.28125 0  0.46875 0.28125 0  0.5 0.28125 0  0.53125 0.28125 0  0.5625 0.28125 0  0.59375 0.28125 0  0.625 0.28125 0  0.65625 0.28125 0  0.6875 0.28125 0  0.71875 0.28125 0  0.75 0.28125 0  0.78125 0.28125 0  0.8125 0.28125 0  0.84375 0.28125 0  0.875 0.28125 0  0.90625 0.28125 0  0.9375 0.28125 0  0.96875 0.28125 0  1 0.28125 0  0 0.3125 0  0.03125 0.3125 0  0.0625 0.3125 0  0.09375 0.3125 0  0.125 0.3125 0  0.15625 0.3125 0  0.1875 0.3125 0  0.21875 0.3125 0  0.25 0.3125 0  0.28125 0.3125 0  0.3125 0.3125 0  0.34375 0.3125 0  0.375 0.3125 0  0.40625 0.3125 0  0.4375 0.3125 0  0.46875 0.3125 0  0.5 0.3125 0  0.53125 0.3125 0  0.5625 0.3125 0  0.59375 0.3125 0  0.625 0.3125 0  0.65625 0.3125 0  0.6875 0.3125 0  0.71875 0.3125 0  0.75 0.3125 0  0.78125 0.3125 0  0.8125 0.3125 0  0.84375 0.3125 0  0.875 0.3125 0  0.90625 0.3125 0  0.9375 0.3125 0  0.96875 0.3125 0  1 0.3125 0  0 0.34375 0  0.03125 0.34375 0  0.0625 0.34375 0  0.09375 0.34375 0  0.125 0.34375 0  0.15625 0.34375 0  0.1875 0.34375 0  0.21875 0.34375 0  0.25 0.34375 0  0.28125 0.34375 0  0.3125 0.34375 0  0.34375 0.34375 0  0.375 0.34375 0  0.40625 0.34375 0  0.4375 0.34375 0  0.46875 0.34375 0  0.5 0.34375 0  0.53125 0.34375 0  0.5625 0.34375 0  0.59375 0.34375 0  0.625 0.34375 0  0.65625 0.34375 0  0.6875 0.34375 0  0.71875 0.34375 0  0.75 0.34375 0  0.78125 0.34375 0  0.8125 0.34375 0  0.84375 0.34375 0  0.875 0.34375 0  0.90625 0.34375 0  0.9375 0.34375 0  0.96875 0.34375 0  1 0.34375 0  0 0.375 0  0.03125 0.375 0  0.0625 0.375 0  0.09375 0.375 0  0.125 0.375 0  0.15625 0.375 0  0.1875 0.375 0  0.21875 0.375 0  0.25 0.375 0  0.28125 0.375 0  0.3125 0.375 0  0.34375 0.375 0  0.375 0.375 0  0.40625 0.375 0  0.4375 0.375 0  0.46875 0.375 0  0.5 0.375 0  0.53125 0.375 0  0.5625 0.375 0  0.59375 0.375 0  0.625 0.375 0  0.65625 0.375 0  0.6875 0.375 0  0.71875 0.375 0  0.75 0.375 0  0.78125 0.375 0  0.8125 0.375 0  0.84375 0.375 0  0.875 0.375 0  0.90625 0.375 0  0.9375 0.375 0  0.96875 0.375 0  1 0.375 0  0 0.40625 0  0.03125 0.40625 0  0.0625 0.40625 0  0.09375 0.40625 0  0.125 0.40625 0  0.15625 0.40625 0  0.1875 0.40625 0  0.21875 0.40625 0  0.25 0.40625 0  0.28125 0.40625 0  0.3125 0.40625 0  0.34375 0.40625 0  0.375 0.40625 0  0.40625 0.40625 0  0.4375 0.40625 0  0.46875 0.40625 0  0.5 0.40625 0  0.53125 0.40625 0  0.5625 0.40625 0  0.59375 0.40625 0  0.625 0.40625 0  0.65625 0.40625 0  0.6875 0.40625 0  0.71875 0.40625 0  0.75 0.40625 0  0.78125 0.40625 0  0.8125 0.40625 0  0.84375 0.40625 0  0.875 0.40625 0  0.90625 0.40625 0  0.9375 0.40625 0  0.96875 0.40625 0  1 0.40625 0  0 0.4375 0  0.03125 0.4375 0  0.0625 0.4375 0  0.09375 0.4375 0  0.125 0.4375 0  0.15625 0.4375 0  0.1875 0.4375 0  0.21875 0.4375 0  0.25 0.4375 0  0.28125 0.4375 0  0.3125 0.4375 0  0.34375 0.4375 0  0.375 0.4375 0  0.40625 0.4375 0  0.4375 0.4375 0  0.46875 0.4375 0  0.5 0.4375 0  0.53125 0.4375 0  0.5625 0.4375 0  0.59375 0.4375 0  0.625 0.4375 0  0.65625 0.4375 0  0.6875 0.4375 0  0.71875 0.4375 0  0.75 0.4375 0  0.78125 0.4375 0  0.8125 0.4375 0  0.84375 0.4375 0  0.875 0.4375 0  0.90625 0.4375 0  0.9375 0.4375 0  0.96875 0.4375 0  1 0.4375 0  0 0.46875 0  0.03125 0.46875 0  0.0625 0.46875 0  0.09375 0.46875 0  0.125 0.46875 0  0.15625 0.46875 0  0.1875 0.46875 0  0.21875 0.46875 0  0.25 0.46875 0  0.28125 0.46875 0  0.3125 0.46875 0  0.34375 0.46875 0  0.375 0.46875 0  0.40625 0.46875 0  0.4375 0.46875 0  0.46875 0.46875 0  0.5 0.46875 0  0.53125 0.46875 0  0.5625 0.46875 0  0.59375 0.46875 0  0.625 0.46875 0  0.65625 0.46875 0  0.6875 0.46875 0  0.71875 0.46875 0  0.75 0.46875 0  0.78125 0.46875 0  0.8125 0.46875 0  0.84375 0.46875 0  0.875 0.46875 0  0.90625 0.46875 0  0.9375 0.46875 0  0.96875 0.46875 0  1 0.46875 0  0 0.5 0  0.03125 0.5 0  0.0625 0.5 0  0.09375 0.5 0  0.125 0.5 0  0.15625 0.5 0  0.1875 0.5 0  0.21875 0.5 0  0.25 0.5 0  0.28125 0.5 0  0.3125 0.5 0  0.34375 0.5 0  0.375 0.5 0  0.40625 0.5 0  0.4375 0.5 0  0.46875 0.5 0  0.5 0.5 0  0.53125 0.5 0  0.5625 0.5 0  0.59375 0.5 0  0.625 0.5 0  0.65625 0.5 0  0.6875 0.5 0  0.71875 0.5 0  0.75 0.5 0  0.78125 0.5 0  0.8125 0.5 0  0.84375 0.5 0  0.875 0.5 0  0.90625 0.5 0  0.9375 0.5 0  0.96875 0.5 0  1 0.5 0  0 0.53125 0  0.03125 0.53125 0  0.0625 0.53125 0  0.09375 0.53125 0  0.125 0.53125 0  0.15625 0.53125 0  0.1875 0.53125 0  0.21875 0.53125 0  0.25 0.53125 0  0.28125 0.53125 0  0.3125 0.53125 0  0.34375 0.53125 0  0.375 0.53125 0  0.40625 0.53125 0  0.4375 0.53125 0  0.46875 0.53125 0  0.5 0.53125 0  0.53125 0.53125 0  0.5625 0.53125 0  0.59375 0.53125 0  0.625 0.53125 0  0.65625 0.53125 0  0.6875 0.53125 0  0.71875 0.53125 0  0.75 0.53125 0  0.78125 0.531
[...]
<PointData  Scalars="phi"> 
<DataArray  type="Float64"  Name="phi"  format="ascii">0.0000000000000000e+00  0.0000000000000000e+00  0.0000000000000000e+00  0.0000000000000000e+00  0.0000000000000000e+00  0.0000000000000000e+00  0.0000000000000000e+00  0.0000000000000000e+00  0.0000000000000000e+00  0.0000000000000000e+00  0.0000000000000000e+00  0.0000000000000000e+00  0.0000000000000000e+00  0.0000000000000000e+00  0.0000000000000000e+00  0.0000000000000000e+00  0.0000000000000000e+00  0.0000000000000000e+00  0.0000000000000000e+00  0.0000000000000000e+00  0.0000000000000000e+00  0.0000000000000000e+00  0.0000000000000000e+00  0.0000000000000000e+00  0.0000000000000000e+00  0.0000000000000000e+00  0.0000000000000000e+00  0.0000000000000000e+00  0.0000000000000000e+00  0.0000000000000000e+00  0.0000000000000000e+00  0.0000000000000000e+00  0.0000000000000000e+00  0.0000000000000000e+00  -9.8658436212183345e-16  6.8656092564195337e-05  2.7052169804691852e-04  6.6342162341365585e-04  1.2957098439731697e-03  2.2038651921428018e-03  3.4105469881620300e-03  4.9232004984067655e-03  6.7332754417821720e-03  8.8160947155008374e-03  1.1131384172978995e-02  1.3624447991003940e-02  1.6227948655458107e-02  1.8864226742750852e-02  2.1448074344670328e-02  2.3889857975646314e-02  2.6098872797753893e-02  2.7986800538660702e-02  2.9471138930882299e-02  3.0478471054069135e-02  3.0947448614743359e-02  3.0831373766976138e-02  3.0100279217337791e-02  2.8742425600684296e-02  2.6765157953152513e-02  2.4195089178213919e-02  2.1077607914281017e-02  1.7475743182403167e-02  1.3468466189272620e-02  9.1485964346478231e-03  4.6206945931507931e-03  0.0000000000000000e+00  0.0000000000000000e+00  -6.8656092568087000e-05  -3.8399334020461808e-15  3.3491946921797636e-04  1.0517825802380627e-03  2.2474652926489655e-03  3.9952207909153574e-03  6.3407901595042091e-03  9.2996123858006229e-03  1.2855256683161929e-02  1.6959150187586005e-02  2.1531622338944414e-02  2.6464235181495772e-02  3.1623318149684311e-02  3.6854578462514984e-02  4.1988615793626533e-02  4.6847134017787617e-02  5.1249614926991913e-02  5.5020199935833181e-02  5.7994516693696249e-02  6.0026188561763102e-02  6.0992776090045955e-02  6.0800920568481395e-02  5.9390489712321595e-02  5.6737563582008911e-02  5.2856143763458117e-02  4.7798519489833123e-02  4.1654279967849372e-02  3.4548022864847740e-02  2.6635876906924968e-02  1.8101036468134536e-02  9.1485964346478491e-03  0.0000000000000000e+00  0.0000000000000000e+00  -2.7052169805263178e-04  -3.3491946922925428e-04  -8.2817773738557477e-15  9.0781537341281171e-04  2.5341760755126720e-03  4.9895833538827995e-03  8.3435684681341504e-03  1.2620513577005190e-02  1.7797295103709157e-02  2.3802857005057371e-02  3.0519745245948516e-02  3.7787557682193822e-02  4.5408188330578372e-02  5.3152674472876429e-02  6.0769391869890658e-02  6.7993289961649994e-02  7.4555817349545278e-02  8.0195159701051705e-02  8.4666398586751457e-02  8.7751201202993678e-02  8.9266667434823505e-02  8.9072991694781348e-02  8.7079641327027293e-02  8.3249809517186552e-02  7.7602966639048226e-02  7.0215407569987773e-02  6.1218771309915335e-02  5.0796590587051618e-02  3.9179009333873402e-02  2.6635876906925100e-02  1.3468466189272728e-02  0.0000000000000000e+00  0.0000000000000000e+00  -6.6342162342105325e-04  -1.0517825802526669e-03  -9.0781537343425972e-04  -1.3884461222731543e-14  1.8663949939540982e-03  4.8397348232102335e-03  9.0142940729331985e-03  1.4424704791522231e-02  2.1042811728161973e-02  2.8777075309083935e-02  3.7474563311046233e-02  4.6925470922327225e-02  5.6870009888425513e-02  6.7007414519219557e-02  7.7006729050711847e-02  8.6518970407896939e-02  9.5190205520063076e-02  1.0267504511968431e-01  1.0865003786219422e-01  1.1282645035953431e-01  1.1496194029371117e-01  1.1487067038379178e-01  1.1243146911634917e-01  1.0759371764710086e-01  1.0038072838056471e-01  9.0890476146872665e-02  7.9293643797990088e-02  6.5829045864608471e-02  5.0796590587051986e-02  3.4548022864848163e-02  1.7475743182403431e-02  0.0000000000000000e+00  0.0000000000000000e+00  -1.2957098439820769e-03  -2.2474652926665504e-03  -2.5341760755384943e-03  -1.8663949939875212e-03  -2.0105393797432067e-14  3.2519359726041375e-03  8.0095657938592402e-03  1.4319370917060117e-02  2.2150234136787128e-02  3.1392655083499268e-02  4.1861158923873341e-02  5.3299824252452326e-02  6.5390734345707913e-02  7.7765041523125009e-02  9.0016231740197294e-02  1.0171508968583721e-01  1.1242579692685856e-01  1.2172254965787478e-01  1.2920606016684433e-01  1.3451930810417251e-01  1.3736193400045452e-01  1.3750271723236879e-01  1.3478965190267717e-01  1.2915722415139277e-01  1.2063059975937963e-01  1.0932654736185632e-01  9.5451045323232481e-02  7.9293643797990837e-02  6.1218771309916355e-02  4.1654279967850275e-02  2.1077607914281538e-02  0.0000000000000000e+00  0.0000000000000000e+00  -2.2038651921530128e-03  -3.9952207909355140e-03  -4.9895833539123921e-03  -4.8397348232485215e-03  -3.2519359726501749e-03  -2.6334293043848218e-14  5.0633382125182700e-03  1.1998218495937959e-02  2.0772956920663496e-02  3.1263056316657045e-02  4.3253985717101852e-02  5.6447642070281287e-02  7.0472264050331648e-02  8.4895432925642569e-02  9.9239674433698855e-02  1.1300007314177285e-01  1.2566323080702202e-01  1.3672684588482251e-01  1.4571916468482560e-01  1.5221755678971466e-01  1.5586549817481354e-01  1.5638730383253377e-01  1.5360003537915023e-01  1.4742211487031717e-01  1.3787829974674362e-01  1.2510081056346245e-01  1.0932654736185764e-01  9.0890476146874621e-02  7.0215407569989785e-02  4.7798519489834733e-02  2.4195089178214807e-02  0.0000000000000000e+00  0.0000000000000000e+00  -3.4105469881733127e-03  -6.3407901595264804e-03  -8.3435684681668360e-03  -9.0142940729754650e-03  -8.0095657939100243e-03  -5.0633382125763130e-03  -3.1944771122156626e-14  7.2561664880926970e-03  1.6675532918561491e-02  2.8121913664059472e-02  4.1355664798068126e-02  5.6040995362818355e-02  7.1757228971293982e-02  8.8013599728634664e-02  1.0426702816974327e-01  1.1994220575578007e-01  1.3445322498348766e-01  1.4722592988056021e-01  1.5772013100653584e-01  1.6545083125400545e-01  1.7000764368658550e-01  1.7107164902965044e-01  1.6842903569824669e-01  1.6198098572284589e-01  1.5174941093218428e-01  1.3787829974674568e-01  1.2063059975938288e-01  1.0038072838056836e-01  7.7602966639051613e-02  5.2856143763460678e-02  2.6765157953153890e-02  0.0000000000000000e+00  0.0000000000000000e+00  -4.9232004984188721e-03  -9.2996123858245135e-03  -1.2620513577040237e-02  -1.4424704791567520e-02  -1.4319370917114485e-02  -1.1998218496000026e-02  -7.2561664881609107e-03  -3.6349076550409326e-14  9.7454476808778862e-03  2.1835846610570118e-02  3.6010733875427220e-02  5.1901581413025942e-02  6.9044277159730452e-02  8.6895556861142725e-02  1.0485276958814038e-01  1.2227622923324011e-01  1.3851330207365165e-01  1.5292331083252250e-01  1.6490230125053454e-01  1.7390671934217158e-01  1.7947508619154937e-01  1.8124683086958854e-01  1.7897754799942261e-01  1.7255008058031757e-01  1.6198098572284883e-01  1.4742211487032206e-01  1.2915722415139860e-01  1.0759371764710672e-01  8.3249809517191672e-02  5.6737563582012672e-02  2.8742425600686287e-02  0.0000000000000000e+00  0.0000000000000000e+00  -6.7332754417948415e-03  -1.2855256683186923e-02  -1.7797295103745805e-02  -2.1042811728209293e-02  -2.2150234136843867e-02  -2.0772956920728176e-02  -1.6675532918632448e-02  -9.7454476809533397e-03  -3.9048997416649255e-14  1.2411999584117216e-02  2.7213799917397329e-02  4.4009433463922103e-02  6.2297277140608676e-02  8.1487945216244514e-02  1.0092584086850015e-01  1.1991354981338909e-01  1.3773814746152740e-01  1.5369841464184919e-01  1.6713191902672800e-01  1.7744092147210333e-01  1.8411610849282622e-01  1.8675723243000261e-01  1.8508985645901682e-01  1.7897754799942661e-01  1.6842903569825349e-01  1.5360003537915870e-01  1.3478965190268619e-01  1.1243146911635772e-01  8.7079641327034524e-02  5.9390489712326806e-02  3.0100279217340518e-02  0.0000000000000000e+00  0.0000000000000000e+00  -8.8160947155138079e-03  -1.6959150187611585e-02  -2.3802857005094852e-02  -2.8777075309132281e-02  -3.1392655083557167e-02  -3.1263056316722923e-02  -2.8121913664131592e-02  -2.1835846610646595e-02  -1.2411999584196108e-02  -3.9680402664106432e-14  1.5111761994220773e-02  3.2505408547678707e-02  5.1648065127240961e-02  7.1911026283866045e-02  9.2592873046888860e-02  1.1294566456593910e-01  1.3220320591361126e-01  1.4961031147348003e-01  1.6445194225911111e-01  1.7608109744066872e-01  1.8394438524359111e-01  1.8760428452420708e-01  1.8675723243000769e-01  1.8124683086959748e-01  1.7107164902966193e-01  1.5638730383254654e-01  1.3750271723238158e-01  1.1487067038380350e-01  8.9072991694791034e-02  6.0800920568488286e-02  3.0831373766979711e-02  0.0000000000000000e+00  0.0000000000000000e+00  -1.1131384172992012e-02  -2.1531622338970074e-02  -3.0519745245986083e-02  -3.7474563311094632e-02  -4.1861158923931212e-02  -4.3253985717167556e-02  -4.1355664798139860e-02  -3.6010733875503034e-02  -2.7213799917475221e-02  -1.5111761994298733e-02  -3.8052401096244447e-14  1.7687341783147948e-02  3.7392618793361740e-02  5.8454925503679957e-02  8.0134544312206374e-02  1.0164067446748447e-01  1.2216138315188484e-01  1.4089463302939051e-01  1.5707919666263781e-01  1.7002426992403497e-01  1.7913664382225755e-01  1.8394438524359730e-01  1.8411610849283735e-01  1.7947508619156410e-01  1.7000764368660240e-01  1.5586549817483122e-01  1.3736193400047161e-01  1.1496194029372644e-01  8.9266667434835939e-02  6.0992776090054719e-02  3.0947448614747887e-02  0.0000000000000000e+00  0.0000000000000000e+00  -1.3624447991016760e-02  -2.6464235181521027e-02  -3.7787557682230757e-02  -4.6925470922374750e-02  -5.3299824252509030e-02  -5.6447642070345513e-02  -5.6040995362888243e-02  -5.1901581413099522e-02  -4.4009433463997306e-02  -3.2505408547753509e-02  -1.7687341783220401e-02  -3.4143558717716547e-14  1.9980792838173625e-02  4.1569260477863919e-02  6.3995208917140653e-02  8.6433018059681288e-02  1.0803298312285166e-01  1.2795380610255541e-01  1.4539499125501396e-01  1.5962790000792920e-01  1.7002426992404221e-01  1.7608109744068204e-01  1.7744092147212134e-01  1.7390671934219282e-01  1.6545083125402835e-01  1.5221755678973772e-01  1.3451930810419430e-01  1.1282645035955345e-01  8.7751201203009069e-02  6.0026188561773872e-02  3.0478471054074679e-02  0.0000000000000000e+00  0.0000000000000000e+00  -1.6227948655470503e-02  -3.1623318149708715e-02  -4.5408188330614024e-02  -5.6870009888471310e-02  -6.5390734345762438e-02  -7.0472264050393210e-02  -7.1757228971360706e-02  -6.9044277159800355e-02  -6.2297277140679688e-02  -5.1648065127311044e-02  -3.7392618793428943e-02  -1.9980792838236141e-02  -2.8128024557869275e-14  2.1846545031184210e-02  4.4766191166745108e-02  6.7906819806868954e-02  9.0389270987746212e-02  1.1134098470647852e-01  1.2992956697066527e-01  1.4539499125502214e-01  1.5707919666265316e-01  1.6445194225913226e-01  1.6713191902675351e-01  1.6490230125056279e-01  1.5772013100656518e-01  1.4571916468485441e-01  1.2920606016687103e-01  1.0865003786221746e-01  8.4666398586769984e-02  5.7994516693709135e-02  2.9471138930888905e-02  0.0000000000000000e+00  0.0000000000000000e+00  -1.8864226742762630e-02  -3.6854578462538160e-02  -5.3152674472910236e-02  -6.7007414519262870e-02  -7.7765041523176426e-02  -8.4895432925700412e-02  -8.8013599728697073e-02  -8.6895556861207701e-02  -8.1487945216310032e-02  -7.1911026283930063e-02  -5.8454925503740547e-02  -4.1569260477919326e-02  -2.1846545031232890e-02  -2.0353124826859712e-14  2.3163382639313491e-02  4.6773492412159119e-02  6.9930296077619997e-02  9.1738303994818082e-02  1.1134098470648748e-01  1.2795380610257245e-01  1.4089463302941446e-01  1.4961031147350948e-01  1.5369841464188255e-01  1.5292331083255808e-01  1.4722592988059621e-01  1.3672684588485723e-01  1.2172254965790656e-01  1.0267504511971168e-01  8.0195159701073410e-02  5.5020199935848224e-02  2.7986800538668394e-02  0.0000000000000000e+00  0.0000000000000000e+00  -2.1448074344681319e-02  -4.1988615793648140e-02  -6.0769391869922119e-02  -7.7006729050752079e-02  -9.0016231740244868e-02  -9.9239674433752131e-02  -1.0426702816980042e-01  -1.0485276958819943e-01  -1.0092584086855912e-01  -9.2592873046945731e-02  -8.0134544312259276e-02  -6.3995208917187907e-02  -4.4766191166785221e-02  -2.3163382639345285e-02  -1.1307112359060142e-14  2.3844452922352623e-02  4.7457828858540087e-02  6.9930296077629489e-02  9.0389270987764572e-02  1.0803298312287789e-01  1.2216138315191767e-01  1.3220320591364920e-01  1.3773814746156873e-01  1.3851330207369458e-01  1.3445322498353032e-01  1.2566323080706260e-01  1.1242579692689537e-01  9.5190205520094565e-02  7.4555817349570105e-02  5.1249614927009066e-02  2.6098872797762646e-02  0.0000000000000000e+00  0.0000000000000000e+00  -2.3889857975656389e-02  -4.6847134017807393e-02  -6.7993289961678735e-02  -8.6518970407933563e-02  -1.0171508968588036e-01  -1.1300007314182091e-01  -1.1994220575583124e-01  -1.2227622923329248e-01  -1.1991354981344071e-01  -1.1294566456598806e-01  -1.0164067446752895e-01  -8.6433018059719660e-02  -6.7906819806899832e-02  -4.6773492412181414e-02  -2.3844452922365561e-02  -1.5871469340010940e-15  2.3844452922362400e-02  4.6773492412178298e-02  6.7906819806896793e-02  8.6433018059716732e-02  1.0164067446752613e-01  1.1294566456598540e-01  1.1991354981343821e-01  1.2227622923329021e-01  1.1994220575582920e-01  1.1300007314181912e-01  1.0171508968587886e-01  8.6518970407932341e-02  6.7993289961677805e-02  4.6847134017806769e-02  2.3889857975656077e-02  0.0000000000000000e+00  0.0000000000000000e+00  -2.6098872797762952e-02  -5.1249614927009676e-02  -7.4555817349571007e-02  -9.5190205520095758e-02  -1.1242579692689686e-01  -1.2566323080706437e-01  -1.3445322498353235e-01  -1.3851330207369680e-01  -1.3773814746157118e-01  -1.3220320591365181e-01  -1.2216138315192045e-01  -1.0803298312288080e-01  -9.0389270987767584e-02  -6.9930296077632584e-02  -4.7457828858543230e-02  -2.3844452922355781e-02  8.1602809012696669e-15  2.3163382639342176e-02  4.4766191166782182e-02  6.3995208917184965e-02  8.0134544312256473e-02  9.2592873046943067e-02  1.0092584086855662e-01  1.0485276958819714e-01  1.0426702816979837e-01  9.9239674433750341e-02  9.0016231740243341e-02  7.7006729050750844e-02  6.0769391869921183e-02  4.1988615793647509e-02  2.1448074344681003e-02  0.0000000000000000e+00  0.0000000000000000e+00  -2.7986800538668692e-02  -5.5020199935848814e-02  -8.0195159701074298e-02  -1.0267504511971284e-01  -1.2172254965790802e-01  -1.3672684588485892e-01  -1.4722592988059816e-01  -1.5292331083256025e-01  -1.5369841464188491e-01  -1.4961031147351203e-01  -1.4089463302941718e-01  -1.2795380610257528e-01  -1.1134098470649043e-01  -9.1738303994821122e-02  -6.9930296077623078e-02  -4.6773492412162235e-02  -2.3163382639316596e-02  1.7283751175739173e-14  2.1846545031229885e-02  4.1569260477916412e-02  5.8454925503737758e-02  7.1911026283927412e-02  8.1487945216307547e-02  8.6895556861205425e-02  8.8013599728695033e-02  8.4895432925698622e-02  7.7765041523174899e-02  6.7007414519261649e-02  5.3152674472909292e-02  3.6854578462537528e-02  1.8864226742762315e-02  0.0000000000000000e+00  0.0000000000000000e+00  -2.9471138930889190e-02  -5.7994516693709704e-02  -8.4666398586770844e-02  -1.0865003786221857e-01  -1.2920606016687242e-01  -1.4571916468485605e-01  -1.5772013100656707e-01  -1.6490230125056488e-01  -1.6713191902675581e-01  -1.6445194225913476e-01  -1.5707919666265577e-01  -1.4539499125502492e-01  -1.2992956697066813e-01  -1.1134098470648147e-01  -9.0389270987749223e-02  -6.7906819806871979e-02  -4.4766191166748133e-02  -2.1846545031187208e-02  2.5187475455674633e-14  1.9980792838233289e-02  3.7392618793426202e-02  5.1648065127308442e-02  6.2297277140677260e-02  6.9044277159798120e-02  7.1757228971358694e-02  7.0472264050391448e-02  6.5390734345760926e-02  5.6870009888470088e-02  4.5408188330613102e-02  3.1623318149708098e-02  1.6227948655470191e-02  0.0000000000000000e+00  0.0000000000000000e+00  -3.0478471054074949e-02  -6.0026188561774413e-02  -8.7751201203009888e-02  -1.1282645035955452e-01  -1.3451930810419560e-01  -1.5221755678973931e-01  -1.6545083125403015e-01  -1.7390671934219482e-01  -1.7744092147212356e-01  -1.7608109744068443e-01  -1.7002426992404474e-01  -1.5962790000793187e-01  -1.4539499125501670e-01  -1.2795380610255824e-01  -1.0803298312285456e-01  -8.6433018059684202e-02  -6.3995208917143581e-02  -4.1569260477866819e-02  -1.9980792838176466e-02  3.1382231889784529e-14  1.7687341783217750e-02  3.2505408547750997e-02  4.4009433463994954e-02  5.1901581413097350e-02  5.6040995362886287e-02  5.6447642070343799e-02  5.3299824252507566e-02  4.6925470922373563e-02  3.7787557682229855e-02  2.6464235181520419e-02  1.3624447991016456e-02  0.0000000000000000e+00  0.0000000000000000e+00  -3.0947448614748137e-02  -6.0992776090055226e-02  -8.9266667434836702e-02  -1.1496194029372744e-01  -1.3736193400047286e-01  -1.5586549817483270e-01  -1.7000764368660409e-01  -1.7947508619156599e-01  -1.8411610849283944e-01  -1.8394438524359957e-01  -1.7913664382225997e-01  -1.7002426992403749e-01  -1.5707919666264045e-01  -1.4089463302939323e-01  -1.2216138315188760e-01  -1.0164067446748726e-01  -8.0134544312209163e-02  -5.8454925503682725e-02  -3.7392618793364460e-02  -1.7687341783150588e-02  3.5512427390778017e-14  1.5111761994296324e-02  2.7213799917472959e-02  3.6010733875500953e-02  4.1355664798137987e-02  4.3253985717165905e-02  4.1861158923929803e-02  3.7474563311093487e-02  3.0519745245985216e-02  2.1531622338969488e-02  1.1131384172991719e-02  0.0000000000000000e+00  0.0000000000000000e+00  -3.0831373766979947e-02  -6.0800920568488757e-02  -8.9072991694791742e-02  -1.1487067038380444e-01  -1.3750271723238275e-01  -1.5638730383254790e-01  -1.7107164902966349e-01  -1.8124683086959922e-01  -1.8675723243000963e-01  -1.8760428452420919e-01  -1.8394438524359336e-01  -1.7608109744067110e-01  -1.6445194225911361e-01  -1.4961031147348258e-01  -1.3220320591361384e-01  -1.1294566456594174e-01  -9.2592873046891483e-02  -7.1911026283868654e-02  -5.1648065127243521e-02  -3.2505408547681205e-02  -1.5111761994223172e-02  3.7399973666546926e-14  1.2411999584193971e-02  2.1835846610644628e-02  2.8121913664129815e-02  3.1263056316721362e-02  3.1392655083555834e-02  2.8777075309131199e-02  2.3802857005094030e-02  1.6959150187611034e-02  8.8160947155135304e-03  0.0000000000000000e+00  0.0000000000000000e+00  -3.0100279217340736e-02  -5.9390489712327243e-02  -8.7079641327035176e-02  -1.1243146911635858e-01  -1.3478965190268724e-01  -1.5360003537915995e-01  -1.6842903569825493e-01  -1.7897754799942822e-01  -1.8508985645901860e-01  -1.8675723243000455e-01  -1.8411610849282831e-01  -1.7744092147210555e-01  -1.6713191902673033e-01  -1.5369841464185152e-01  -1.3773814746152979e-01  -1.1991354981339153e-01  -1.0092584086850259e-01  -8.1487945216246929e-02  -6.2297277140611063e-02  -4.4009433463924427e-02  -2.7213799917399566e-02  -1.2411999584119343e-02  3.7057218722319243e-14  9.7454476809515043e-03  1.6675532918630789e-02  2.0772956920726716e-02  2.2150234136842622e-02  2.1042811728208280e-02  1.7797295103745035e-02  1.2855256683186406e-02  6.7332754417945822e-03  0.0000000000000000e+00  0.0000000000000000e+00  -2.8742425600686485e-02  -5.6737563582013074e-02  -8.3249809517192269e-02  -1.0759371764710751e-01  -1.2915722415139955e-01  -1.4742211487032320e-01  -1.6198098572285013e-01  -1.7255008058031907e-01  -1.7897754799942425e-01  -1.8124683086959031e-01  -1.7947508619155128e-01  -1.7390671934217361e-01  -1.6490230125053665e-01  -1.5292331083252467e-01  -1.3851330207365384e-01  -1.2227622923324234e-01  -1.0485276958814260e-01  -8.6895556861144932e-02  -6.9044277159732631e-02  -5.1901581413028072e-02  -3.6010733875429267e-02  -2.1835846610572064e-02  -9.7454476808797128e-03  3.4663772234448391e-14  7.256166488159387