<?xml version="1.0"?>
<VTKFile type="UnstructuredGrid"  version="0.1"  >
<UnstructuredGrid>
<Piece  NumberOfPoints="1089" NumberOfCells="2048">
<Points>
<DataArray  type="Float64"  NumberOfComponents="3"  format="ascii">0 0 0  0.03125 0 0  0.0625 0 0  0.09375 0 0  0.125 0 0  0.15625 0 0  0.1875 0 0  0.21875 0 0  0.25 0 0  0.28125 0 0  0.3125 0 0  0.34375 0 0  0.375 0 0  0.40625 0 0  0.4375 0 0  0.46875 0 0  0.5 0 0  0.53125 0 0  0.5625 0 0  0.59375 0 0  0.625 0 0  0.65625 0 0  0.6875 0 0  0.71875 0 0  0.75 0 0  0.78125 0 0  0.8125 0 0  0.84375 0 0  0.875 0 0  0.90625 0 0  0.9375 0 0  0.96875 0 0  1 0 0  0 0.03125 0  0.03125 0.03125 0  0.0625 0.03125 0  0.09375 0.03125 0  0.125 0.03125 0  0.15625 0.03125 0  0.1875 0.03125 0  0.21875 0.03125 0  0.25 0.03125 0  0.28125 0.03125 0  0.3125 0.03125 0  0.34375 0.03125 0  0.375 0.03125 0  0.40625 0.03125 0  0.4375 0.03125 0  0.46875 0.03125 0  0.5 0.03125 0  0.53125 0.03125 0  0.5625 0.03125 0  0.59375 0.03125 0  0.625 0.03125 0  0.65625 0.03125 0  0.6875 0.03125 0  0.71875 0.03125 0  0.75 0.03125 0  0.78125 0.03125 0  0.8125 0.03125 0  0.84375 0.03125 0  0.875 0.03125 0  0.90625 0.03125 0  0.9375 0.03125 0  0.96875 0.03125 0  1 0.03125 0  0 0.0625 0  0.03125 0.0625 0  0.0625 0.0625 0  0.09375 0.0625 0  0.125 0.0625 0  0.15625 0.0625 0  0.1875 0.0625 0  0.21875 0.0625 0  0.25 0.0625 0  0.28125 0.0625 0  0.3125 0.0625 0  0.34375 0.0625 0  0.375 0.0625 0  0.40625 0.0625 0  0.4375 0.0625 0  0.46875 0.0625 0  0.5 0.0625 0  0.53125 0.0625 0  0.5625 0.0625 0  0.59375 0.0625 0  0.625 0.0625 0  0.65625 0.0625 0  0.6875 0.0625 0  0.71875 0.0625 0  0.75 0.0625 0  0.78125 0.0625 0  0.8125 0.0625 0  0.84375 0.0625 0  0.875 0.0625 0  0.90625 0.0625 0  0.9375 0.0625 0  0.96875 0.0625 0  1 0.0625 0  0 0.09375 0  0.03125 0.09375 0  0.0625 0.09375 0  0.09375 0.09375 0  0.125 0.09375 0  0.15625 0.09375 0  0.1875 0.09375 0  0.21875 0.09375 0  0.25 0.09375 0  0.28125 0.09375 0  0.3125 0.09375 0  0.34375 0.09375 0  0.375 0.09375 0  0.40625 0.09375 0  0.4375 0.09375 0  0.46875 0.09375 0  0.5 0.09375 0  0.53125 0.09375 0  0.5625 0.09375 0  0.59375 0.09375 0  0.625 0.09375 0  0.65625 0.09375 0  0.6875 0.09375 0  0.71875 0.09375 0  0.75 0.09375 0  0.78125 0.09375 0  0.8125 0.09375 0  0.84375 0.09375 0  0.875 0.09375 0  0.90625 0.09375 0  0.9375 0.09375 0  0.96875 0.09375 0  1 0.09375 0  0 0.125 0  0.03125 0.125 0  0.0625 0.125 0  0.09375 0.125 0  0.125 0.125 0  0.15625 0.125 0  0.1875 0.125 0  0.21875 0.125 0  0.25 0.125 0  0.28125 0.125 0  0.3125 0.125 0  0.34375 0.125 0  0.375 0.125 0  0.40625 0.125 0  0.4375 0.125 0  0.46875 0.125 0  0.5 0.125 0  0.53125 0.125 0  0.5625 0.125 0  0.59375 0.125 0  0.625 0.125 0  0.65625 0.125 0  0.6875 0.125 0  0.71875 0.125 0  0.75 0.125 0  0.78125 0.125 0  0.8125 0.125 0  0.84375 0.125 0  0.875 0.125 0  0.90625 0.125 0  0.9375 0.125 0  0.96875 0.125 0  1 0.125 0  0 0.15625 0  0.03125 0.15625 0  0.0625 0.15625 0  0.09375 0.15625 0  0.125 0.15625 0  0.15625 0.15625 0  0.1875 0.15625 0  0.21875 0.15625 0  0.25 0.15625 0  0.28125 0.15625 0  0.3125 0.15625 0  0.34375 0.15625 0  0.375 0.15625 0  0.40625 0.15625 0  0.4375 0.15625 0  0.46875 0.15625 0  0.5 0.15625 0  0.53125 0.15625 0  0.5625 0.15625 0  0.59375 0.15625 0  0.625 0.15625 0  0.65625 0.15625 0  0.6875 0.15625 0  0.71875 0.15625 0  0.75 0.15625 0  0.78125 0.15625 0  0.8125 0.15625 0  0.84375 0.15625 0  0.875 0.15625 0  0.90625 0.15625 0  0.9375 0.15625 0  0.96875 0.15625 0  1 0.15625 0  0 0.1875 0  0.03125 0.1875 0  0.0625 0.1875 0  0.09375 0.1875 0  0.125 0.1875 0  0.15625 0.1875 0  0.1875 0.1875 0  0.21875 0.1875 0  0.25 0.1875 0  0.28125 0.1875 0  0.3125 0.1875 0  0.34375 0.1875 0  0.375 0.1875 0  0.40625 0.1875 0  0.4375 0.1875 0  0.46875 0.1875 0  0.5 0.1875 0  0.53125 0.1875 0  0.5625 0.1875 0  0.59375 0.1875 0  0.625 0.1875 0  0.65625 0.1875 0  0.6875 0.1875 0  0.71875 0.1875 0  0.75 0.1875 0  0.78125 0.1875 0  0.8125 0.1875 0  0.84375 0.1875 0  0.875 0.1875 0  0.90625 0.1875 0  0.9375 0.1875 0  0.96875 0.1875 0  1 0.1875 0  0 0.21875 0  0.03125 0.21875 0  0.0625 0.21875 0  0.09375 0.21875 0  0.125 0.21875 0  0.15625 0.21875 0  0.1875 0.21875 0  0.21875 0.21875 0  0.25 0.21875 0  0.28125 0.21875 0  0.3125 0.21875 0  0.34375 0.21875 0  0.375 0.21875 0  0.40625 0.21875 0  0.4375 0.21875 0  0.46875 0.21875 0  0.5 0.21875 0  0.53125 0.21875 0  0.5625 0.21875 0  0.59375 0.21875 0  0.625 0.21875 0  0.65625 0.21875 0  0.6875 0.21875 0  0.71875 0.21875 0  0.75 0.21875 0  0.78125 0.21875 0  0.8125 0.21875 0  0.84375 0.21875 0  0.875 0.21875 0  0.90625 0.21875 0  0.9375 0.21875 0  0.96875 0.21875 0  1 0.21875 0  0 0.25 0  0.03125 0.25 0  0.0625 0.25 0  0.09375 0.25 0  0.125 0.25 0  0.15625 0.25 0  0.1875 0.25 0  0.21875 0.25 0  0.25 0.25 0  0.28125 0.25 0  0.3125 0.25 0  0.34375 0.25 0  0.375 0.25 0  0.40625 0.25 0  0.4375 0.25 0  0.46875 0.25 0  0.5 0.25 0  0.53125 0.25 0  0.5625 0.25 0  0.59375 0.25 0  0.625 0.25 0  0.65625 0.25 0  0.6875 0.25 0  0.71875 0.25 0  0.75 0.25 0  0.78125 0.25 0  0.8125 0.25 0  0.84375 0.25 0  0.875 0.25 0  0.90625 0.25 0  0.9375 0.25 0  0.96875 0.25 0  1 0.25 0  0 0.28125 0  0.03125 0.28125 0  0.0625 0.28125 0  0.09375 0.28125 0  0.125 0.28125 0  0.15625 0.28125 0  0.1875 0.28125 0  0.21875 0.28125 0  0.25 0.28125 0  0.28125 0.28125 0  0.3125 0.28125 0  0.34375 0.28125 0  0.375 0.28125 0  0.40625 0.28125 0  0.4375 0.28125 0  0.46875 0.28125 0  0.5 0.28125 0  0.53125 0.28125 0  0.5625 0.28125 0  0.59375 0.28125 0  0.625 0.28125 0  0.65625 0.28125 0  0.6875 0.28125 0  0.71875 0.28125 0  0.75 0.28125 0  0.78125 0.28125 0  0.8125 0.28125 0  0.84375 0.28125 0  0.875 0.28125 0  0.90625 0.28125 0  0.9375 0.28125 0  0.96875 0.28125 0  1 0.28125 0  0 0.3125 0  0.03125 0.3125 0  0.0625 0.3125 0  0.09375 0.3125 0  0.125 0.3125 0  0.15625 0.3125 0  0.1875 0.3125 0  0.21875 0.3125 0  0.25 0.3125 0  0.28125 0.3125 0  0.3125 0.3125 0  0.34375 0.3125 0  0.375 0.3125 0  0.40625 0.3125 0  0.4375 0.3125 0  0.46875 0.3125 0  0.5 0.3125 0  0.53125 0.3125 0  0.5625 0.3125 0  0.59375 0.3125 0  0.625 0.3125 0  0.65625 0.3125 0  0.6875 0.3125 0  0.71875 0.3125 0  0.75 0.3125 0  0.78125 0.3125 0  0.8125 0.3125 0  0.84375 0.3125 0  0.875 0.3125 0  0.90625 0.3125 0  0.9375 0.3125 0  0.96875 0.3125 0  1 0.3125 0  0 0.34375 0  0.03125 0.34375 0  0.0625 0.34375 0  0.09375 0.34375 0  0.125 0.34375 0  0.15625 0.34375 0  0.1875 0.34375 0  0.21875 0.34375 0  0.25 0.34375 0  0.28125 0.34375 0  0.3125 0.34375 0  0.34375 0.34375 0  0.375 0.34375 0  0.40625 0.34375 0  0.4375 0.34375 0  0.46875 0.34375 0  0.5 0.34375 0  0.53125 0.34375 0  0.5625 0.34375 0  0.59375 0.34375 0  0.625 0.34375 0  0.65625 0.34375 0  0.6875 0.34375 0  0.71875 0.34375 0  0.75 0.34375 0  0.78125 0.34375 0  0.8125 0.34375 0  0.84375 0.34375 0  0.875 0.34375 0  0.90625 0.34375 0  0.9375 0.34375 0  0.96875 0.34375 0  1 0.34375 0  0 0.375 0  0.03125 0.375 0  0.0625 0.375 0  0.09375 0.375 0  0.125 0.375 0  0.15625 0.375 0  0.1875 0.375 0  0.21875 0.375 0  0.25 0.375 0  0.28125 0.375 0  0.3125 0.375 0  0.34375 0.375 0  0.375 0.375 0  0.40625 0.375 0  0.4375 0.375 0  0.46875 0.375 0  0.5 0.375 0  0.53125 0.375 0  0.5625 0.375 0  0.59375 0.375 0  0.625 0.375 0  0.65625 0.375 0  0.6875 0.375 0  0.71875 0.375 0  0.75 0.375 0  0.78125 0.375 0  0.8125 0.375 0  0.84375 0.375 0  0.875 0.375 0  0.90625 0.375 0  0.9375 0.375 0  0.96875 0.375 0  1 0.375 0  0 0.40625 0  0.03125 0.40625 0  0.0625 0.40625 0  0.09375 0.40625 0  0.125 0.40625 0  0.15625 0.40625 0  0.1875 0.40625 0  0.21875 0.40625 0  0.25 0.40625 0  0.28125 0.40625 0  0.3125 0.40625 0  0.34375 0.40625 0  0.375 0.40625 0  0.40625 0.40625 0  0.4375 0.40625 0  0.46875 0.40625 0  0.5 0.40625 0  0.53125 0.40625 0  0.5625 0.40625 0  0.59375 0.40625 0  0.625 0.40625 0  0.65625 0.40625 0  0.6875 0.40625 0  0.71875 0.40625 0  0.75 0.40625 0  0.78125 0.40625 0  0.8125 0.40625 0  0.84375 0.40625 0  0.875 0.40625 0  0.90625 0.40625 0  0.9375 0.40625 0  0.96875 0.40625 0  1 0.40625 0  0 0.4375 0  0.03125 0.4375 0  0.0625 0.4375 0  0.09375 0.4375 0  0.125 0.4375 0  0.15625 0.4375 0  0.1875 0.4375 0  0.21875 0.4375 0  0.25 0.4375 0  0.28125 0.4375 0  0.3125 0.4375 0  0.34375 0.4375 0  0.375 0.4375 0  0.40625 0.4375 0  0.4375 0.4375 0  0.46875 0.4375 0  0.5 0.4375 0  0.53125 0.4375 0  0.5625 0.4375 0  0.59375 0.4375 0  0.625 0.4375 0  0.65625 0.4375 0  0.6875 0.4375 0  0.71875 0.4375 0  0.75 0.4375 0  0.78125 0.4375 0  0.8125 0.4375 0  0.84375 0.4375 0  0.875 0.4375 0  0.90625 0.4375 0  0.9375 0.4375 0  0.96875 0.4375 0  1 0.4375 0  0 0.46875 0  0.03125 0.46875 0  0.0625 0.46875 0  0.09375 0.46875 0  0.125 0.46875 0  0.15625 0.46875 0  0.1875 0.46875 0  0.21875 0.46875 0  0.25 0.46875 0  0.28125 0.46875 0  0.3125 0.46875 0  0.34375 0.46875 0  0.375 0.46875 0  0.40625 0.46875 0  0.4375 0.46875 0  0.46875 0.46875 0  0.5 0.46875 0  0.53125 0.46875 0  0.5625 0.46875 0  0.59375 0.46875 0  0.625 0.46875 0  0.65625 0.46875 0  0.6875 0.46875 0  0.71875 0.46875 0  0.75 0.46875 0  0.78125 0.46875 0  0.8125 0.46875 0  0.84375 0.46875 0  0.875 0.46875 0  0.90625 0.46875 0  0.9375 0.46875 0  0.96875 0.46875 0  1 0.46875 0  0 0.5 0  0.03125 0.5 0  0.0625 0.5 0  0.09375 0.5 0  0.125 0.5 0  0.15625 0.5 0  0.1875 0.5 0  0.21875 0.5 0  0.25 0.5 0  0.28125 0.5 0  0.3125 0.5 0  0.34375 0.5 0  0.375 0.5 0  0.40625 0.5 0  0.4375 0.5 0  0.46875 0.5 0  0.5 0.5 0  0.53125 0.5 0  0.5625 0.5 0  0.59375 0.5 0  0.625 0.5 0  0.65625 0.5 0  0.6875 0.5 0  0.71875 0.5 0  0.75 0.5 0  0.78125 0.5 0  0.8125 0.5 0  0.84375 0.5 0  0.875 0.5 0  0.90625 0.5 0  0.9375 0.5 0  0.96875 0.5 0  1 0.5 0  0 0.53125 0  0.03125 0.53125 0  0.0625 0.53125 0  0.09375 0.53125 0  0.125 0.53125 0  0.15625 0.53125 0  0.1875 0.53125 0  0.21875 0.53125 0  0.25 0.53125 0  0.28125 0.53125 0  0.3125 0.53125 0  0.34375 0.53125 0  0.375 0.53125 0  0.40625 0.53125 0  0.4375 0.53125 0  0.46875 0.53125 0  0.5 0.53125 0  0.53125 0.53125 0  0.5625 0.53125 0  0.59375 0.53125 0  0.625 0.53125 0  0.65625 0.53125 0  0.6875 0.53125 0  0.71875 0.53125 0  0.75 0.53125 0  0.78125 0.531
[...]
<PointData  Scalars="phi"> 
<DataArray  type="Float64"  Name="phi"  format="ascii">0.0000000000000000e+00  0.0000000000000000e+00  0.0000000000000000e+00  0.0000000000000000e+00  0.0000000000000000e+00  0.0000000000000000e+00  0.0000000000000000e+00  0.0000000000000000e+00  0.0000000000000000e+00  0.0000000000000000e+00  0.0000000000000000e+00  0.0000000000000000e+00  0.0000000000000000e+00  0.0000000000000000e+00  0.0000000000000000e+00  0.0000000000000000e+00  0.0000000000000000e+00  0.0000000000000000e+00  0.0000000000000000e+00  0.0000000000000000e+00  0.0000000000000000e+00  0.0000000000000000e+00  0.0000000000000000e+00  0.0000000000000000e+00  0.0000000000000000e+00  0.0000000000000000e+00  0.0000000000000000e+00  0.0000000000000000e+00  0.0000000000000000e+00  0.0000000000000000e+00  0.0000000000000000e+00  0.0000000000000000e+00  0.0000000000000000e+00  0.0000000000000000e+00  -1.1500701157519812e-19  4.6046123530043763e-10  1.8143292261803433e-09  4.4494221699327189e-09  8.6900394896864075e-09  1.4780836650350493e-08  2.2873784703637936e-08  3.3018817405260946e-08  4.5158589910066782e-08  5.9127598344851858e-08  7.4655732911597409e-08  9.1376160815231382e-08  1.0883726423439100e-07  1.2651819858266838e-07  1.4384749325599058e-07  1.6022399628127283e-07  1.7503937036202345e-07  1.8770128436959895e-07  1.9765641383416807e-07  2.0441236770070046e-07  2.0755769652666880e-07  2.0677920818258734e-07  2.0187591865607818e-07  1.9276909462025734e-07  1.7950799760877937e-07  1.6227111448210220e-07  1.4136285680431546e-07  1.1720594628622078e-07  9.0330025353501498e-08  6.1357613872092587e-08  3.0989977172201313e-08  0.0000000000000000e+00  0.0000000000000000e+00  -4.6046123575767263e-10  -4.5458110258907686e-19  2.2462308411520430e-09  7.0540732547527987e-09  1.5073252885660296e-08  2.6795062648522619e-08  4.2526277885206636e-08  6.2370444471119187e-08  8.6217364752486078e-08  1.1374127126810261e-07  1.4440783118339031e-07  1.7748977510079720e-07  2.1209060408673888e-07  2.4717551056748554e-07  2.8160836400225294e-07  3.1419337169376581e-07  3.4371983792679693e-07  3.6900831804482803e-07  3.8895640302890446e-07  4.0258237712091151e-07  4.0906506599659513e-07  4.0777833342570235e-07  3.9831888546744319e-07  3.8052629637501356e-07  3.5449447168991179e-07  3.2057410373975932e-07  2.7936604752914895e-07  2.3170595206901752e-07  1.7864093821103167e-07  1.2139965012449414e-07  6.1357613872092773e-08  0.0000000000000000e+00  0.0000000000000000e+00  -1.8143292268598025e-09  -2.2462308425032835e-09  -1.0042444995741662e-18  6.0885170239682620e-09  1.6996158724717313e-08  3.3464032541120233e-08  5.5958469260611356e-08  8.4642994631862323e-08  1.1936252393713054e-07  1.5964050000260365e-07  2.0468918457958361e-07  2.5343279594595437e-07  3.0454268106616967e-07  3.5648323760424346e-07  4.0756687741265348e-07  4.5601596497850850e-07  5.0002938543807692e-07  5.3785120794053935e-07  5.6783881872215793e-07  5.8852790793411934e-07  5.9869180493784250e-07  5.9739286456405718e-07  5.8402390430345118e-07  5.5833806898863085e-07  5.2046594211242070e-07  4.7091921655141220e-07  4.1058076597750660e-07  3.4068150382660802e-07  2.6276495457755982e-07  1.7864093821103255e-07  9.0330025353502213e-08  0.0000000000000000e+00  0.0000000000000000e+00  -4.4494221708271815e-09  -7.0540732565317912e-09  -6.0885170266127601e-09  -1.7410524774838321e-18  1.2517498631808733e-08  3.2459031571266660e-08  6.0456877618820315e-08  9.6743306267227016e-08  1.4112948647335140e-07  1.9300148255193069e-07  2.5133361188931846e-07  3.1471875999335095e-07  3.8141458447062318e-07  4.4940391632561435e-07  5.1646710841122132e-07  5.8026360839057917e-07  6.3841966539988063e-07  6.8861882997456749e-07  7.2869178544971114e-07  7.5670206081983001e-07  7.7102431973102641e-07  7.7041219262180152e-07  7.5405300893811939e-07  7.2160727928132160e-07  6.7323135479499970e-07  6.0958233100624985e-07  5.3180494007156122e-07  4.4150085825525557e-07  3.4068150382661040e-07  2.3170595206902028e-07  1.1720594628622250e-07  0.0000000000000000e+00  0.0000000000000000e+00  -8.6900394907864832e-09  -1.5073252887848384e-08  -1.6996158727970115e-08  -1.2517498636092007e-08  -2.6344836659613997e-18  2.1810015683049678e-08  5.3718387158543722e-08  9.6036855255911872e-08  1.4855672375726662e-07  2.1054359789056451e-07  2.8075353895030664e-07  3.5747013864481257e-07  4.3856119978895977e-07  5.2155294252805748e-07  6.0371896703075981e-07  6.8218062108916664e-07  7.5401496681516680e-07  8.1636623221543864e-07  8.6655648287300160e-07  9.0219126222706209e-07  9.2125612571464271e-07  9.2220032772941560e-07  9.0400439832146003e-07  8.6622895051452217e-07  8.0904276563763414e-07  7.3322898511399489e-07  6.4016906029953004e-07  5.3180494007156619e-07  4.1058076597751327e-07  2.7936604752915482e-07  1.4136285680431885e-07  0.0000000000000000e+00  0.0000000000000000e+00  -1.4780836651644725e-08  -2.6795062651097021e-08  -3.3464032544947499e-08  -3.2459031576306553e-08  -2.1810015689249575e-08  -3.6477477359976130e-18  3.3958690071379659e-08  8.0469399087365091e-08  1.3931962993283202e-07  2.0967440761004091e-07  2.9009492034938397e-07  3.7858185688251352e-07  4.7264189617948530e-07  5.6937490139911146e-07  6.6557855821452906e-07  7.5786651043648353e-07  8.4279550954351290e-07  9.1699673011604009e-07  9.7730622444011458e-07  1.0208895037346799e-06  1.0453554401804514e-06  1.0488550753752460e-06  1.0301614820202987e-06  9.8872753487673213e-07  9.2471927662642772e-07  8.3902348130293253e-07  7.3322898511400357e-07  6.0958233100626267e-07  4.7091921655142538e-07  3.2057410373976986e-07  1.6227111448210799e-07  0.0000000000000000e+00  0.0000000000000000e+00  -2.2873784705112925e-08  -4.2526277888140706e-08  -5.5958469264973477e-08  -6.0456877624564707e-08  -5.3718387165610465e-08  -3.3958690079695372e-08  -4.7393850799824200e-18  4.8665504561691007e-08  1.1183911293831014e-07  1.8860745822830511e-07  2.7736330159289156e-07  3.7585456730922443e-07  4.8125987184551365e-07  5.9028775683504461e-07  6.9929590836011119e-07  8.0442585923006630e-07  9.0174805734295001e-07  9.8741176551706731e-07  1.0577940525910609e-06  1.1096421501803830e-06  1.1402036838240163e-06  1.1473397324482506e-06  1.1296163090185989e-06  1.0863706632584129e-06  1.0177497529591311e-06  9.2471927662644127e-07  8.0904276563765542e-07  6.7323135479502363e-07  5.2046594211244283e-07  3.5449447168992852e-07  1.7950799760878837e-07  0.0000000000000000e+00  0.0000000000000000e+00  -3.3018817406901523e-08  -6.2370444474382752e-08  -8.4642994636714445e-08  -9.6743306273616861e-08  -9.6036855263772801e-08  -8.0469399096615538e-08  -4.8665504572235429e-08  -5.8650265784561784e-18  6.5360563232984553e-08  1.4644819611582200e-07  2.4151603145972465e-07  3.4809243301789047e-07  4.6306470377745637e-07  5.8278929047972617e-07  7.0322434656681487e-07  8.2007963872667214e-07  9.2897809685362008e-07  1.0256228400817590e-06  1.1059632807056956e-06  1.1663539223041686e-06  1.2036997278041879e-06  1.2155824276932553e-06  1.2003628491376746e-06  1.1572552460325794e-06  1.0863706632584322e-06  9.8872753487676411e-07  8.6622895051456028e-07  7.2160727928135993e-07  5.5833806898866431e-07  3.8052629637503817e-07  1.9276909462027036e-07  0.0000000000000000e+00  0.0000000000000000e+00  -4.5158589911856173e-08  -8.6217364756045774e-08  -1.1936252394242307e-07  -1.4112948648032137e-07  -1.4855672376584140e-07  -1.3931962994292267e-07  -1.1183911294981248e-07  -6.5360563245780402e-08  -6.9793196588973124e-18  8.3244537371345150e-08  1.8251694007792876e-07  2.9516154138334925e-07  4.1781406615960588e-07  5.4652163459875319e-07  6.7688730374153683e-07  8.0423367015765551e-07  9.2377930622725910e-07  1.0308212899835223e-06  1.1209168342442373e-06  1.1900570347081115e-06  1.2348260384205428e-06  1.2525394728132172e-06  1.2413567507712211e-06  1.2003628491377007e-06  1.1296163090186433e-06  1.0301614820203541e-06  9.0400439832151911e-07  7.5405300893817550e-07  5.8402390430349861e-07  3.9831888546747734e-07  2.0187591865609602e-07  0.0000000000000000e+00  0.0000000000000000e+00  -5.9127598346771883e-08  -1.1374127127192228e-07  -1.5964050000828282e-07  -1.9300148255940999e-07  -2.1054359789976605e-07  -2.0967440762086927e-07  -1.8860745824064853e-07  -1.4644819612955367e-07  -8.3244537386324835e-08  -8.0377799618238802e-18  1.0135124703769703e-07  2.1800658938212602e-07  3.4639215533056446e-07  4.8229135641971764e-07  6.2099993067101921e-07  7.5750160414297910e-07  8.8665767683472928e-07  1.0034032857603960e-06  1.1029428225065252e-06  1.1809369955352586e-06  1.2336743285489747e-06  1.2582204639567422e-06  1.2525394728132502e-06  1.2155824276933136e-06  1.1473397324483258e-06  1.0488550753753294e-06  9.2220032772949946e-07  7.7041219262187829e-07  5.9739286456412060e-07  4.0777833342574746e-07  2.0677920818261074e-07  0.0000000000000000e+00  0.0000000000000000e+00  -7.4655732913628700e-08  -1.4440783118743137e-07  -2.0468918458559212e-07  -2.5133361189723160e-07  -2.8075353896004212e-07  -2.9009492036084078e-07  -2.7736330160595149e-07  -2.4151603147425360e-07  -1.8251694009377834e-07  -1.0135124705470629e-07  -8.9986549776341094e-18  1.1862509131608563e-07  2.5078402811840464e-07  3.9204426313055114e-07  5.3744467392069695e-07  6.8168153466549876e-07  8.1930939144530598e-07  9.4494915714811839e-07  1.0534954476306493e-06  1.1403151923202733e-06  1.2014298696486494e-06  1.2336743285490152e-06  1.2348260384206156e-06  1.2036997278042842e-06  1.1402036838241269e-06  1.0453554401805668e-06  9.2125612571475462e-07  7.7102431973112647e-07  5.9869180493792382e-07  4.0906506599665246e-07  2.0755769652669845e-07  0.0000000000000000e+00  0.0000000000000000e+00  -9.1376160817353583e-08  -1.7748977510501921e-07  -2.5343279595223194e-07  -3.1471876000161868e-07  -3.5747013865498433e-07  -3.7858185689448395e-07  -3.7585456732287002e-07  -3.4809243303307116e-07  -2.9516154139990991e-07  -2.1800658939989854e-07  -1.1862509133489071e-07  -9.8245724480009019e-18  1.3400676054451788e-07  2.7879584059531268e-07  4.2920171923313263e-07  5.7968714498588207e-07  7.2455333571460203e-07  8.5815789168555938e-07  9.7513206490510663e-07  1.0705890375437633e-06  1.1403151923203205e-06  1.1809369955353456e-06  1.1900570347082293e-06  1.1663539223043075e-06  1.1096421501805329e-06  1.0208895037348307e-06  9.0219126222720460e-07  7.5670206081995526e-07  5.8852790793422013e-07  4.0258237712098202e-07  2.0441236770073672e-07  0.0000000000000000e+00  0.0000000000000000e+00  -1.0883726423658300e-07  -2.1209060409109983e-07  -3.0454268107265397e-07  -3.8141458447916318e-07  -4.3856119979946669e-07  -4.7264189619185034e-07  -4.8125987185960923e-07  -4.6306470379313770e-07  -4.1781406617671287e-07  -3.4639215534892342e-07  -2.5078402813783034e-07  -1.3400676056481567e-07  -1.0483969694345593e-17  1.4651994805391438e-07  3.0023694800248291e-07  4.5543602875823414e-07  6.0622085879351240e-07  7.4673937105948625e-07  8.7140888306051824e-07  9.7513206490516021e-07  1.0534954476307495e-06  1.1029428225066637e-06  1.1209168342444042e-06  1.1059632807058805e-06  1.0577940525912530e-06  9.7730622444030305e-07  8.6655648287317651e-07  7.2869178544986307e-07  5.6783881872227916e-07  3.8895640302898879e-07  1.9765641383421133e-07  0.0000000000000000e+00  0.0000000000000000e+00  -1.2651819858490852e-07  -2.4717551057194241e-07  -3.5648323761087044e-07  -4.4940391633434233e-07  -5.2155294253879584e-07  -5.6937490141174898e-07  -5.9028775684945095e-07  -5.8278929049575341e-07  -5.4652163461623775e-07  -4.8229135643848186e-07  -3.9204426315040575e-07  -2.7879584061605874e-07  -1.4651994807534547e-07  -1.0952296141142198e-17  1.5535168678732922e-07  3.1369947371540297e-07  4.6900703679049713e-07  6.1526852495074178e-07  7.4673937105954490e-07  8.5815789168567076e-07  9.4494915714827520e-07  1.0034032857605887e-06  1.0308212899837407e-06  1.0256228400819918e-06  9.8741176551730300e-07  9.1699673011626741e-07  8.1636623221564679e-07  6.8861882997474664e-07  5.3785120794068133e-07  3.6900831804492640e-07  1.8770128436964927e-07  0.0000000000000000e+00  0.0000000000000000e+00  -1.4384749325825698e-07  -2.8160836400676201e-07  -4.0756687741935827e-07  -5.1646710842005196e-07  -6.0371896704162460e-07  -6.6557855822731544e-07  -6.9929590837468725e-07  -7.0322434658303110e-07  -6.7688730375922764e-07  -6.2099993069000492e-07  -5.3744467394078603e-07  -4.2920171925412375e-07  -3.0023694802416727e-07  -1.5535168680949276e-07  -1.1212828096568087e-17  1.5991947461611286e-07  3.1828916697979977e-07  4.6900703679055929e-07  6.0622085879363258e-07  7.2455333571477377e-07  8.1930939144552092e-07  8.8665767683497746e-07  9.2377930622752952e-07  9.2897809685390098e-07  9.0174805734322932e-07  8.4279550954377865e-07  7.5401496681540778e-07  6.3841966540008667e-07  5.0002938543823945e-07  3.4371983792690916e-07  1.7503937036208073e-07  0.0000000000000000e+00  0.0000000000000000e+00  -1.6022399628354346e-07  -3.1419337169828341e-07  -4.5601596498522600e-07  -5.8026360839942664e-07  -6.8218062110005229e-07  -7.5786651044929459e-07  -8.0442585924467063e-07  -8.2007963874291992e-07  -8.0423367017538095e-07  -7.5750160416200188e-07  -6.8168153468562723e-07  -5.7968714500691443e-07  -4.5543602877996117e-07  -3.1369947373761022e-07  -1.5991947463858281e-07  -1.1257222001415336e-17  1.5991947461617678e-07  3.1369947371552844e-07  4.5543602875841631e-07  5.7968714498611394e-07  6.8168153466577140e-07  7.5750160414328192e-07  8.0423367015797696e-07  8.2007963872699983e-07  8.0442585923038764e-07  7.5786651043678624e-07  6.8218062108943918e-07  5.8026360839081083e-07  4.5601596497869051e-07  3.1419337169389117e-07  1.6022399628133670e-07  0.0000000000000000e+00  0.0000000000000000e+00  -1.7503937036427645e-07  -3.4371983793127953e-07  -5.0002938544474244e-07  -6.3841966540865970e-07  -7.5401496682596838e-07  -8.4279550955622517e-07  -9.0174805735744201e-07  -9.2897809686974304e-07  -9.2377930624484816e-07  -8.8665767685360615e-07  -8.1930939146527997e-07  -7.2455333573547314e-07  -6.0622085881507299e-07  -4.6900703681253423e-07  -3.1828916700209765e-07  -1.5991947463851884e-07  -1.1085536834087464e-17  1.5535168678751681e-07  3.0023694800272537e-07  4.2920171923342247e-07  5.3744467392102475e-07  6.2099993067137390e-07  6.7688730374190624e-07  7.0322434656718629e-07  6.9929590836047160e-07  6.6557855821486597e-07  6.0371896703106114e-07  5.1646710841147639e-07  4.0756687741285322e-07  2.8160836400239015e-07  1.4384749325606043e-07  0.0000000000000000e+00  0.0000000000000000e+00  -1.8770128437181281e-07  -3.6900831804923282e-07  -5.3785120794708924e-07  -6.8861882998319452e-07  -8.1636623222605323e-07  -9.1699673012853245e-07  -9.8741176553130848e-07  -1.0256228400976030e-06  -1.0308212900008073e-06  -1.0034032857789465e-06  -9.4494915716774721e-07  -8.5815789170606975e-07  -7.4673937108067435e-07  -6.1526852497239819e-07  -4.6900703681247208e-07  -3.1369947373748475e-07  -1.5535168680930517e-07  -1.0706168873922574e-17  1.4651994805421311e-07  2.7879584059565605e-07  3.9204426313092923e-07  4.8229135642011903e-07  5.4652163459916559e-07  5.8278929048013646e-07  5.9028775683543954e-07  5.6937490139947822e-07  5.2155294252838401e-07  4.4940391632588968e-07  3.5648323760445856e-07  2.4717551056763308e-07  1.2651819858274337e-07  0.0000000000000000e+00  0.0000000000000000e+00  -1.9765641383632187e-07  -3.8895640303318975e-07  -5.6783881872853027e-07  -7.2869178545810428e-07  -8.6655648288332862e-07  -9.7730622445226845e-07  -1.0577940526049165e-06  -1.1059632807211106e-06  -1.1209168342610545e-06  -1.1029428225245738e-06  -1.0534954476497472e-06  -9.7513206492506230e-07  -8.7140888308113333e-07  -7.4673937108061580e-07  -6.0622085881495292e-07  -4.5543602877977906e-07  -3.0023694802392480e-07  -1.4651994807504674e-07  -1.0135300158585924e-17  1.3400676054490809e-07  2.5078402811882626e-07  3.4639215533100587e-07  4.1781406616005448e-07  4.6306470377789900e-07  4.8125987184593706e-07  4.7264189617987652e-07  4.3856119978930663e-07  3.8141458447091483e-07  3.0454268106639694e-07  2.1209060408689455e-07  1.0883726423447009e-07  0.0000000000000000e+00  0.0000000000000000e+00  -2.0441236770277394e-07  -4.0258237712503709e-07  -5.8852790794025429e-07  -7.5670206082791060e-07  -9.0219126223700456e-07  -1.0208895037463815e-06  -1.1096421501937229e-06  -1.1663539223190101e-06  -1.1900570347243032e-06  -1.1809369955526359e-06  -1.1403151923386609e-06  -1.0705890375629770e-06  -9.7513206492500873e-07  -8.5815789170595837e-07  -7.2455333573530161e-07  -5.7968714500668266e-07  -4.2920171925383396e-07  -2.7879584061571538e-07  -1.3400676056442543e-07  -9.3960670978147336e-18  1.1862509131654213e-07  2.1800658938259885e-07  2.9516154138382576e-07  3.4809243301835756e-07  3.7585456730966886e-07  3.7858185688292242e-07  3.5747013864517399e-07  3.1471875999365409e-07  2.5343279594619011e-07  1.7748977510095848e-07  9.1376160815313266e-08  0.0000000000000000e+00  0.0000000000000000e+00  -2.0755769652864273e-07  -4.0906506600052261e-07  -5.9869180494368290e-07  -7.7102431973871927e-07  -9.2125612572410820e-07  -1.0453554401915916e-06  -1.1402036838367165e-06  -1.2036997278183181e-06  -1.2348260384359584e-06  -1.2336743285655192e-06  -1.2014298696661557e-06  -1.1403151923386135e-06  -1.0534954476496470e-06  -9.4494915716759062e-07  -8.1930939146506525e-07  -6.8168153468535469e-07  -5.3744467394045834e-07  -3.9204426315002771e-07  -2.5078402813740873e-07  -1.1862509133443421e-07  -8.5175767510216398e-18  1.0135124703819116e-07  1.8251694007842346e-07  2.4151603146020693e-07  2.7736330159334854e-07  2.9009492034980304e-07  2.8075353895067600e-07  2.5133361188962762e-07  2.0468918457982369e-07  1.4440783118355437e-07  7.4655732911680657e-08  0.0000000000000000e+00  0.0000000000000000e+00  -2.0677920818444342e-07  -4.0777833342939552e-07  -5.9739286456954923e-07  -7.7041219262903550e-07  -9.2220032773831675e-07  -1.0488550753857221e-06  -1.1473397324601940e-06  -1.2155824277065432e-06  -1.2525394728277141e-06  -1.2582204639723007e-06  -1.2336743285654788e-06  -1.1809369955525489e-06  -1.1029428225244355e-06  -1.0034032857787540e-06  -8.8665767685335797e-07  -7.5750160416169906e-07  -6.2099993068965033e-07  -4.8229135643808037e-07  -3.4639215534848201e-07  -2.1800658939942571e-07  -1.0135124705421219e-07  -7.5336610139381823e-18  8.3244537371847163e-08  1.4644819611630936e-07  1.8860745822876524e-07  2.0967440761046164e-07  2.1054359789093456e-07  1.9300148255223991e-07  1.5964050000284347e-07  1.1374127126826634e-07  5.9127598344934894e-08  0.0000000000000000e+00  0.0000000000000000e+00  -2.0187591865779945e-07  -3.9831888547086822e-07  -5.8402390430854471e-07  -7.5405300894482842e-07  -9.0400439832971532e-07  -1.0301614820300148e-06  -1.1296163090296757e-06  -1.2003628491499987e-06  -1.2413567507846667e-06  -1.2525394728276809e-06  -1.2348260384358855e-06  -1.1900570347241853e-06  -1.1209168342608879e-06  -1.0308212900005890e-06  -9.2377930624457775e-07  -8.0423367017505928e-07  -6.7688730375885823e-07  -5.4652163461582524e-07  -4.1781406617626421e-07  -2.9516154139943340e-07  -1.8251694009328367e-07  -8.3244537385822836e-08  -6.4815933534440185e-18  6.5360563233466052e-08  1.1183911293876342e-07  1.3931962993324556e-07  1.4855672375762965e-07  1.4112948647365432e-07  1.1936252393736525e-07  8.6217364752646194e-08  4.5158589910147965e-08  0.0000000000000000e+00  0.0000000000000000e+00  -1.9276909462182822e-07  -3.8052629637813932e-07  -5.5833806899327937e-07  -7.2160727928744470e-07  -8.6622895052205653e-07  -9.8872753488560015e-07  -1.0863706632685229e-06  -1.1572552460438280e-06  -1.2003628491499729e-06  -1.2155824277064849e-06  -1.2036997278182217e-06  -1.1663539223188714e-06  -1.1059632807209259e-06  -1.0256228400973705e-06  -9.2897809686946214e-07  -8.2007963874259212e-07  -7.0322434658265968e-07  -5.8278929049534313e-07  -4.6306470379269502e-07  -3.4809243303260402e-07  -2.4151603147377127e-07  -1.4644819612906634e-07  -6.5360563245298917e-08  -5.4006029852763562e-18  4.8665504