<?xml version="1.0"?>
<VTKFile type="UnstructuredGrid"  version="0.1"  >
<UnstructuredGrid>
<Piece  NumberOfPoints="1089" NumberOfCells="2048">
<Points>
<DataArray  type="Float64"  NumberOfComponents="3"  format="ascii">0 0 0  0.03125 0 0  0.0625 0 0  0.09375 0 0  0.125 0 0  0.15625 0 0  0.1875 0 0  0.21875 0 0  0.25 0 0  0.28125 0 0  0.3125 0 0  0.34375 0 0  0.375 0 0  0.40625 0 0  0.4375 0 0  0.46875 0 0  0.5 0 0  0.53125 0 0  0.5625 0 0  0.59375 0 0  0.625 0 0  0.65625 0 0  0.6875 0 0  0.71875 0 0  0.75 0 0  0.78125 0 0  0.8125 0 0  0.84375 0 0  0.875 0 0  0.90625 0 0  0.9375 0 0  0.96875 0 0  1 0 0  0 0.03125 0  0.03125 0.03125 0  0.0625 0.03125 0  0.09375 0.03125 0  0.125 0.03125 0  0.15625 0.03125 0  0.1875 0.03125 0  0.21875 0.03125 0  0.25 0.03125 0  0.28125 0.03125 0  0.3125 0.03125 0  0.34375 0.03125 0  0.375 0.03125 0  0.40625 0.03125 0  0.4375 0.03125 0  0.46875 0.03125 0  0.5 0.03125 0  0.53125 0.03125 0  0.5625 0.03125 0  0.59375 0.03125 0  0.625 0.03125 0  0.65625 0.03125 0  0.6875 0.03125 0  0.71875 0.03125 0  0.75 0.03125 0  0.78125 0.03125 0  0.8125 0.03125 0  0.84375 0.03125 0  0.875 0.03125 0  0.90625 0.03125 0  0.9375 0.03125 0  0.96875 0.03125 0  1 0.03125 0  0 0.0625 0  0.03125 0.0625 0  0.0625 0.0625 0  0.09375 0.0625 0  0.125 0.0625 0  0.15625 0.0625 0  0.1875 0.0625 0  0.21875 0.0625 0  0.25 0.0625 0  0.28125 0.0625 0  0.3125 0.0625 0  0.34375 0.0625 0  0.375 0.0625 0  0.40625 0.0625 0  0.4375 0.0625 0  0.46875 0.0625 0  0.5 0.0625 0  0.53125 0.0625 0  0.5625 0.0625 0  0.59375 0.0625 0  0.625 0.0625 0  0.65625 0.0625 0  0.6875 0.0625 0  0.71875 0.0625 0  0.75 0.0625 0  0.78125 0.0625 0  0.8125 0.0625 0  0.84375 0.0625 0  0.875 0.0625 0  0.90625 0.0625 0  0.9375 0.0625 0  0.96875 0.0625 0  1 0.0625 0  0 0.09375 0  0.03125 0.09375 0  0.0625 0.09375 0  0.09375 0.09375 0  0.125 0.09375 0  0.15625 0.09375 0  0.1875 0.09375 0  0.21875 0.09375 0  0.25 0.09375 0  0.28125 0.09375 0  0.3125 0.09375 0  0.34375 0.09375 0  0.375 0.09375 0  0.40625 0.09375 0  0.4375 0.09375 0  0.46875 0.09375 0  0.5 0.09375 0  0.53125 0.09375 0  0.5625 0.09375 0  0.59375 0.09375 0  0.625 0.09375 0  0.65625 0.09375 0  0.6875 0.09375 0  0.71875 0.09375 0  0.75 0.09375 0  0.78125 0.09375 0  0.8125 0.09375 0  0.84375 0.09375 0  0.875 0.09375 0  0.90625 0.09375 0  0.9375 0.09375 0  0.96875 0.09375 0  1 0.09375 0  0 0.125 0  0.03125 0.125 0  0.0625 0.125 0  0.09375 0.125 0  0.125 0.125 0  0.15625 0.125 0  0.1875 0.125 0  0.21875 0.125 0  0.25 0.125 0  0.28125 0.125 0  0.3125 0.125 0  0.34375 0.125 0  0.375 0.125 0  0.40625 0.125 0  0.4375 0.125 0  0.46875 0.125 0  0.5 0.125 0  0.53125 0.125 0  0.5625 0.125 0  0.59375 0.125 0  0.625 0.125 0  0.65625 0.125 0  0.6875 0.125 0  0.71875 0.125 0  0.75 0.125 0  0.78125 0.125 0  0.8125 0.125 0  0.84375 0.125 0  0.875 0.125 0  0.90625 0.125 0  0.9375 0.125 0  0.96875 0.125 0  1 0.125 0  0 0.15625 0  0.03125 0.15625 0  0.0625 0.15625 0  0.09375 0.15625 0  0.125 0.15625 0  0.15625 0.15625 0  0.1875 0.15625 0  0.21875 0.15625 0  0.25 0.15625 0  0.28125 0.15625 0  0.3125 0.15625 0  0.34375 0.15625 0  0.375 0.15625 0  0.40625 0.15625 0  0.4375 0.15625 0  0.46875 0.15625 0  0.5 0.15625 0  0.53125 0.15625 0  0.5625 0.15625 0  0.59375 0.15625 0  0.625 0.15625 0  0.65625 0.15625 0  0.6875 0.15625 0  0.71875 0.15625 0  0.75 0.15625 0  0.78125 0.15625 0  0.8125 0.15625 0  0.84375 0.15625 0  0.875 0.15625 0  0.90625 0.15625 0  0.9375 0.15625 0  0.96875 0.15625 0  1 0.15625 0  0 0.1875 0  0.03125 0.1875 0  0.0625 0.1875 0  0.09375 0.1875 0  0.125 0.1875 0  0.15625 0.1875 0  0.1875 0.1875 0  0.21875 0.1875 0  0.25 0.1875 0  0.28125 0.1875 0  0.3125 0.1875 0  0.34375 0.1875 0  0.375 0.1875 0  0.40625 0.1875 0  0.4375 0.1875 0  0.46875 0.1875 0  0.5 0.1875 0  0.53125 0.1875 0  0.5625 0.1875 0  0.59375 0.1875 0  0.625 0.1875 0  0.65625 0.1875 0  0.6875 0.1875 0  0.71875 0.1875 0  0.75 0.1875 0  0.78125 0.1875 0  0.8125 0.1875 0  0.84375 0.1875 0  0.875 0.1875 0  0.90625 0.1875 0  0.9375 0.1875 0  0.96875 0.1875 0  1 0.1875 0  0 0.21875 0  0.03125 0.21875 0  0.0625 0.21875 0  0.09375 0.21875 0  0.125 0.21875 0  0.15625 0.21875 0  0.1875 0.21875 0  0.21875 0.21875 0  0.25 0.21875 0  0.28125 0.21875 0  0.3125 0.21875 0  0.34375 0.21875 0  0.375 0.21875 0  0.40625 0.21875 0  0.4375 0.21875 0  0.46875 0.21875 0  0.5 0.21875 0  0.53125 0.21875 0  0.5625 0.21875 0  0.59375 0.21875 0  0.625 0.21875 0  0.65625 0.21875 0  0.6875 0.21875 0  0.71875 0.21875 0  0.75 0.21875 0  0.78125 0.21875 0  0.8125 0.21875 0  0.84375 0.21875 0  0.875 0.21875 0  0.90625 0.21875 0  0.9375 0.21875 0  0.96875 0.21875 0  1 0.21875 0  0 0.25 0  0.03125 0.25 0  0.0625 0.25 0  0.09375 0.25 0  0.125 0.25 0  0.15625 0.25 0  0.1875 0.25 0  0.21875 0.25 0  0.25 0.25 0  0.28125 0.25 0  0.3125 0.25 0  0.34375 0.25 0  0.375 0.25 0  0.40625 0.25 0  0.4375 0.25 0  0.46875 0.25 0  0.5 0.25 0  0.53125 0.25 0  0.5625 0.25 0  0.59375 0.25 0  0.625 0.25 0  0.65625 0.25 0  0.6875 0.25 0  0.71875 0.25 0  0.75 0.25 0  0.78125 0.25 0  0.8125 0.25 0  0.84375 0.25 0  0.875 0.25 0  0.90625 0.25 0  0.9375 0.25 0  0.96875 0.25 0  1 0.25 0  0 0.28125 0  0.03125 0.28125 0  0.0625 0.28125 0  0.09375 0.28125 0  0.125 0.28125 0  0.15625 0.28125 0  0.1875 0.28125 0  0.21875 0.28125 0  0.25 0.28125 0  0.28125 0.28125 0  0.3125 0.28125 0  0.34375 0.28125 0  0.375 0.28125 0  0.40625 0.28125 0  0.4375 0.28125 0  0.46875 0.28125 0  0.5 0.28125 0  0.53125 0.28125 0  0.5625 0.28125 0  0.59375 0.28125 0  0.625 0.28125 0  0.65625 0.28125 0  0.6875 0.28125 0  0.71875 0.28125 0  0.75 0.28125 0  0.78125 0.28125 0  0.8125 0.28125 0  0.84375 0.28125 0  0.875 0.28125 0  0.90625 0.28125 0  0.9375 0.28125 0  0.96875 0.28125 0  1 0.28125 0  0 0.3125 0  0.03125 0.3125 0  0.0625 0.3125 0  0.09375 0.3125 0  0.125 0.3125 0  0.15625 0.3125 0  0.1875 0.3125 0  0.21875 0.3125 0  0.25 0.3125 0  0.28125 0.3125 0  0.3125 0.3125 0  0.34375 0.3125 0  0.375 0.3125 0  0.40625 0.3125 0  0.4375 0.3125 0  0.46875 0.3125 0  0.5 0.3125 0  0.53125 0.3125 0  0.5625 0.3125 0  0.59375 0.3125 0  0.625 0.3125 0  0.65625 0.3125 0  0.6875 0.3125 0  0.71875 0.3125 0  0.75 0.3125 0  0.78125 0.3125 0  0.8125 0.3125 0  0.84375 0.3125 0  0.875 0.3125 0  0.90625 0.3125 0  0.9375 0.3125 0  0.96875 0.3125 0  1 0.3125 0  0 0.34375 0  0.03125 0.34375 0  0.0625 0.34375 0  0.09375 0.34375 0  0.125 0.34375 0  0.15625 0.34375 0  0.1875 0.34375 0  0.21875 0.34375 0  0.25 0.34375 0  0.28125 0.34375 0  0.3125 0.34375 0  0.34375 0.34375 0  0.375 0.34375 0  0.40625 0.34375 0  0.4375 0.34375 0  0.46875 0.34375 0  0.5 0.34375 0  0.53125 0.34375 0  0.5625 0.34375 0  0.59375 0.34375 0  0.625 0.34375 0  0.65625 0.34375 0  0.6875 0.34375 0  0.71875 0.34375 0  0.75 0.34375 0  0.78125 0.34375 0  0.8125 0.34375 0  0.84375 0.34375 0  0.875 0.34375 0  0.90625 0.34375 0  0.9375 0.34375 0  0.96875 0.34375 0  1 0.34375 0  0 0.375 0  0.03125 0.375 0  0.0625 0.375 0  0.09375 0.375 0  0.125 0.375 0  0.15625 0.375 0  0.1875 0.375 0  0.21875 0.375 0  0.25 0.375 0  0.28125 0.375 0  0.3125 0.375 0  0.34375 0.375 0  0.375 0.375 0  0.40625 0.375 0  0.4375 0.375 0  0.46875 0.375 0  0.5 0.375 0  0.53125 0.375 0  0.5625 0.375 0  0.59375 0.375 0  0.625 0.375 0  0.65625 0.375 0  0.6875 0.375 0  0.71875 0.375 0  0.75 0.375 0  0.78125 0.375 0  0.8125 0.375 0  0.84375 0.375 0  0.875 0.375 0  0.90625 0.375 0  0.9375 0.375 0  0.96875 0.375 0  1 0.375 0  0 0.40625 0  0.03125 0.40625 0  0.0625 0.40625 0  0.09375 0.40625 0  0.125 0.40625 0  0.15625 0.40625 0  0.1875 0.40625 0  0.21875 0.40625 0  0.25 0.40625 0  0.28125 0.40625 0  0.3125 0.40625 0  0.34375 0.40625 0  0.375 0.40625 0  0.40625 0.40625 0  0.4375 0.40625 0  0.46875 0.40625 0  0.5 0.40625 0  0.53125 0.40625 0  0.5625 0.40625 0  0.59375 0.40625 0  0.625 0.40625 0  0.65625 0.40625 0  0.6875 0.40625 0  0.71875 0.40625 0  0.75 0.40625 0  0.78125 0.40625 0  0.8125 0.40625 0  0.84375 0.40625 0  0.875 0.40625 0  0.90625 0.40625 0  0.9375 0.40625 0  0.96875 0.40625 0  1 0.40625 0  0 0.4375 0  0.03125 0.4375 0  0.0625 0.4375 0  0.09375 0.4375 0  0.125 0.4375 0  0.15625 0.4375 0  0.1875 0.4375 0  0.21875 0.4375 0  0.25 0.4375 0  0.28125 0.4375 0  0.3125 0.4375 0  0.34375 0.4375 0  0.375 0.4375 0  0.40625 0.4375 0  0.4375 0.4375 0  0.46875 0.4375 0  0.5 0.4375 0  0.53125 0.4375 0  0.5625 0.4375 0  0.59375 0.4375 0  0.625 0.4375 0  0.65625 0.4375 0  0.6875 0.4375 0  0.71875 0.4375 0  0.75 0.4375 0  0.78125 0.4375 0  0.8125 0.4375 0  0.84375 0.4375 0  0.875 0.4375 0  0.90625 0.4375 0  0.9375 0.4375 0  0.96875 0.4375 0  1 0.4375 0  0 0.46875 0  0.03125 0.46875 0  0.0625 0.46875 0  0.09375 0.46875 0  0.125 0.46875 0  0.15625 0.46875 0  0.1875 0.46875 0  0.21875 0.46875 0  0.25 0.46875 0  0.28125 0.46875 0  0.3125 0.46875 0  0.34375 0.46875 0  0.375 0.46875 0  0.40625 0.46875 0  0.4375 0.46875 0  0.46875 0.46875 0  0.5 0.46875 0  0.53125 0.46875 0  0.5625 0.46875 0  0.59375 0.46875 0  0.625 0.46875 0  0.65625 0.46875 0  0.6875 0.46875 0  0.71875 0.46875 0  0.75 0.46875 0  0.78125 0.46875 0  0.8125 0.46875 0  0.84375 0.46875 0  0.875 0.46875 0  0.90625 0.46875 0  0.9375 0.46875 0  0.96875 0.46875 0  1 0.46875 0  0 0.5 0  0.03125 0.5 0  0.0625 0.5 0  0.09375 0.5 0  0.125 0.5 0  0.15625 0.5 0  0.1875 0.5 0  0.21875 0.5 0  0.25 0.5 0  0.28125 0.5 0  0.3125 0.5 0  0.34375 0.5 0  0.375 0.5 0  0.40625 0.5 0  0.4375 0.5 0  0.46875 0.5 0  0.5 0.5 0  0.53125 0.5 0  0.5625 0.5 0  0.59375 0.5 0  0.625 0.5 0  0.65625 0.5 0  0.6875 0.5 0  0.71875 0.5 0  0.75 0.5 0  0.78125 0.5 0  0.8125 0.5 0  0.84375 0.5 0  0.875 0.5 0  0.90625 0.5 0  0.9375 0.5 0  0.96875 0.5 0  1 0.5 0  0 0.53125 0  0.03125 0.53125 0  0.0625 0.53125 0  0.09375 0.53125 0  0.125 0.53125 0  0.15625 0.53125 0  0.1875 0.53125 0  0.21875 0.53125 0  0.25 0.53125 0  0.28125 0.53125 0  0.3125 0.53125 0  0.34375 0.53125 0  0.375 0.53125 0  0.40625 0.53125 0  0.4375 0.53125 0  0.46875 0.53125 0  0.5 0.53125 0  0.53125 0.53125 0  0.5625 0.53125 0  0.59375 0.53125 0  0.625 0.53125 0  0.65625 0.53125 0  0.6875 0.53125 0  0.71875 0.53125 0  0.75 0.53125 0  0.78125 0.531
[...]
<PointData  Scalars="phi"> 
<DataArray  type="Float64"  Name="phi"  format="ascii">0.0000000000000000e+00  0.0000000000000000e+00  0.0000000000000000e+00  0.0000000000000000e+00  0.0000000000000000e+00  0.0000000000000000e+00  0.0000000000000000e+00  0.0000000000000000e+00  0.0000000000000000e+00  0.0000000000000000e+00  0.0000000000000000e+00  0.0000000000000000e+00  0.0000000000000000e+00  0.0000000000000000e+00  0.0000000000000000e+00  0.0000000000000000e+00  0.0000000000000000e+00  0.0000000000000000e+00  0.0000000000000000e+00  0.0000000000000000e+00  0.0000000000000000e+00  0.0000000000000000e+00  0.0000000000000000e+00  0.0000000000000000e+00  0.0000000000000000e+00  0.0000000000000000e+00  0.0000000000000000e+00  0.0000000000000000e+00  0.0000000000000000e+00  0.0000000000000000e+00  0.0000000000000000e+00  0.0000000000000000e+00  0.0000000000000000e+00  0.0000000000000000e+00  -8.3666942281612456e-19  2.1725408914666244e-08  8.5603393537718642e-08  2.0993193049208865e-07  4.1001206367713648e-07  6.9738708839900964e-07  1.0792272786941255e-06  1.5578886010974592e-06  2.1306654202284987e-06  2.7897489586155292e-06  3.5223949386484435e-06  4.3112955136249822e-06  5.1351425231921007e-06  5.9693615607581736e-06  6.7869895910030125e-06  7.5596631569656408e-06  8.2586797848967772e-06  8.8560922015175759e-06  9.3257935395329422e-06  9.6445518823517259e-06  9.7929542876943849e-06  9.7562237742269124e-06  9.5248775461836170e-06  9.0952008202344280e-06  8.4695178462399794e-06  7.6562499629155641e-06  6.6697598683526408e-06  5.5299923512030477e-06  4.2619369163144647e-06  2.8949651971762007e-06  1.4621641832719841e-06  0.0000000000000000e+00  0.0000000000000000e+00  -2.1725408917984032e-08  -3.2904157556331997e-18  1.0598130698418988e-07  3.3282416450436259e-07  7.1118382481007801e-07  1.2642403922072352e-06  2.0064680921750132e-06  2.9427524097688375e-06  4.0678940167821925e-06  5.3665226045761743e-06  6.8134273661752031e-06  8.3742943923182468e-06  1.0006825212640456e-05  1.1662195700474200e-05  1.3286801125005355e-05  1.4824221785023646e-05  1.6217334827491648e-05  1.7410491881862828e-05  1.8351679260812766e-05  1.8994577807289883e-05  1.9300443004689012e-05  1.9239732592793774e-05  1.8793418420912936e-05  1.7953931306928490e-05  1.6725701887191929e-05  1.5125276471432604e-05  1.3181004505091309e-05  1.0932313447142527e-05  8.4286083873788136e-06  5.7278590199485392e-06  2.8949651971762092e-06  0.0000000000000000e+00  0.0000000000000000e+00  -8.5603393542629475e-08  -1.0598130699393263e-07  -7.2129345043747288e-18  2.8726744372327825e-07  8.0191006286775886e-07  1.5788946710032993e-06  2.6402236133123139e-06  3.9936123357087461e-06  5.6317436556597305e-06  7.5321327282440077e-06  9.6576126124651957e-06  1.1957425945891127e-05  1.4368884431922812e-05  1.6819535524921198e-05  1.9229755708815162e-05  2.1515672867035805e-05  2.3592307084010239e-05  2.5376810309089849e-05  2.6791681000439574e-05  2.7767830323232503e-05  2.8247381698133613e-05  2.8186095299618007e-05  2.7555323138921846e-05  2.6343418134725596e-05  2.4556541456657613e-05  2.2218835716789879e-05  1.9371956520553594e-05  1.6073980630273697e-05  1.2397734372875963e-05  8.4286083873788559e-06  4.2619369163144986e-06  0.0000000000000000e+00  0.0000000000000000e+00  -2.0993193049851895e-07  -3.3282416451712156e-07  -2.8726744374217174e-07  -1.2373001675888805e-17  5.9059863337397545e-07  1.5314768748124112e-06  2.8524668023730874e-06  4.5645273183902682e-06  6.6587490265636158e-06  9.1061653108534872e-06  1.1858382577010240e-05  1.4849010572444512e-05  1.7995842374948150e-05  2.1203704237200829e-05  2.4367869119877764e-05  2.7377905454184594e-05  3.0121815303699070e-05  3.2490304317521699e-05  3.4381020141147737e-05  3.5702596507012138e-05  3.6378347053288177e-05  3.6349465769186959e-05  3.5577609361639817e-05  3.4046760095733444e-05  3.1764294906304078e-05  2.8761216770197114e-05  2.5091536258293482e-05  2.0830823405829796e-05  1.6073980630273812e-05  1.0932313447142658e-05  5.5299923512031298e-06  0.0000000000000000e+00  0.0000000000000000e+00  -4.1001206368499181e-07  -7.1118382482566574e-07  -8.0191006289084231e-07  -5.9059863340421008e-07  -1.8470167698244359e-17  1.0290366977335750e-06  2.5345324152411736e-06  4.5311956589536262e-06  7.0091797570490185e-06  9.9338346119781206e-06  1.3246468905213726e-05  1.6866099333218169e-05  2.0692124906890076e-05  2.4607828137838900e-05  2.8484572462039104e-05  3.2186537768004701e-05  3.5575814464316401e-05  3.8517661970140267e-05  4.0885730408937515e-05  4.2567044911377779e-05  4.3466560273884619e-05  4.3511109463441855e-05  4.2652592010713703e-05  4.0870276829139541e-05  3.8172127332591804e-05  3.4595093575375994e-05  3.0204354976061624e-05  2.5091536258293716e-05  1.9371956520553913e-05  1.3181004505091590e-05  6.6697598683528025e-06  0.0000000000000000e+00  0.0000000000000000e+00  -6.9738708840817644e-07  -1.2642403922254265e-06  -1.5788946710302392e-06  -1.5314768748476969e-06  -1.0290366977766858e-06  -2.5154732199034839e-17  1.6022335241598789e-06  3.7966944133775081e-06  6.5733566626478660e-06  9.8928246141800547e-06  1.3687212479472244e-05  1.7862189071652590e-05  2.2300114913701879e-05  2.6864156209576990e-05  3.1403221873076515e-05  3.5757537384064402e-05  3.9764643937418132e-05  4.3265594146993608e-05  4.6111107134029234e-05  4.8167446498833506e-05  4.9321794428229517e-05  4.9486913660408473e-05  4.8604915506335371e-05  4.6649985589846004e-05  4.3629958110397713e-05  3.9586672699665777e-05  3.4595093575376407e-05  2.8761216770197727e-05  2.2218835716790506e-05  1.5125276471433105e-05  7.6562499629158402e-06  0.0000000000000000e+00  0.0000000000000000e+00  -1.0792272787044742e-06  -2.0064680921955499e-06  -2.6402236133427279e-06  -2.8524668024129225e-06  -2.5345324152898407e-06  -1.6022335242166686e-06  -3.2049454600953273e-17  2.2961281107747383e-06  5.2767752723844658e-06  8.8988471528688764e-06  1.3086511264486093e-05  1.7733510527998621e-05  2.2706726873505199e-05  2.7850863234867732e-05  3.2994068535039754e-05  3.7954293187565334e-05  4.2546133688987759e-05  4.6587905168906395e-05  4.9908671064407904e-05  5.2354959773950921e-05  5.3796909202656364e-05  5.4133601115979148e-05  5.3297377365304283e-05  5.1256968172290987e-05  4.8019307276125492e-05  4.3629958110398357e-05  3.8172127332592813e-05  3.1764294906305217e-05  2.4556541456658664e-05  1.6725701887192725e-05  8.4695178462404080e-06  0.0000000000000000e+00  0.0000000000000000e+00  -1.5578886011088456e-06  -2.9427524097914350e-06  -3.9936123357422106e-06  -4.5645273184340979e-06  -4.5311956590071705e-06  -3.7966944134399836e-06  -2.2961281108452470e-06  -3.8774148261331106e-17  3.0838317187030247e-06  6.9096955407063065e-06  1.1395171055862095e-05  1.6423641915146866e-05  2.1848245342241479e-05  2.7497071785709577e-05  3.3179419482901718e-05  3.8692867326764975e-05  4.3830897090434874e-05  4.8390774023028122e-05  5.2181383938461319e-05  5.5030725603310645e-05  5.6792769469736756e-05  5.7353417129502351e-05  5.6635329390187498e-05  5.4601433303810097e-05  5.1256968172291909e-05  4.6649985589847522e-05  4.0870276829141357e-05  3.4046760095735273e-05  2.6343418134727189e-05  1.7953931306929662e-05  9.0952008202350497e-06  0.0000000000000000e+00  0.0000000000000000e+00  -2.1306654202407688e-06  -4.0678940168065439e-06  -5.6317436556957930e-06  -6.6587490266108446e-06  -7.0091797571067108e-06  -6.5733566627151738e-06  -5.2767752724604176e-06  -3.0838317187865451e-06  -4.4967730740929368e-17  3.9276305474567594e-06  8.6114852924433812e-06  1.3926264988875283e-05  1.9713236941743016e-05  2.5785897003469249e-05  3.1936789309366823e-05  3.7945225353326884e-05  4.3585608576443224e-05  4.8636046461067862e-05  5.2886920127664160e-05  5.6149082089903804e-05  5.8261366115950921e-05  5.9097118565432666e-05  5.8569497149287335e-05  5.6635329390188738e-05  5.3297377365306397e-05  4.8604915506338007e-05  4.2652592010716515e-05  3.5577609361642486e-05  2.7555323138924103e-05  1.8793418420914559e-05  9.5248775461844657e-06  0.0000000000000000e+00  0.0000000000000000e+00  -2.7897489586285214e-06  -5.3665226046019588e-06  -7.5321327282821903e-06  -9.1061653109034893e-06  -9.9338346120391950e-06  -9.8928246142513004e-06  -8.8988471529492582e-06  -6.9096955407946817e-06  -3.9276305475519015e-06  -5.0312089342952881e-17  4.7819384485301711e-06  1.0285952291958984e-05  1.6343419683290927e-05  2.2755394215035817e-05  2.9299920145324340e-05  3.5740320433384552e-05  4.1834141751546197e-05  4.7342414538458825e-05  5.2038873159263662e-05  5.5718781849485867e-05  5.8207026323649546e-05  5.9365158187729969e-05  5.9097118565434245e-05  5.7353417129505129e-05  5.4133601115982726e-05  4.9486913660412450e-05  4.3511109463445846e-05  3.6349465769190612e-05  2.8186095299621026e-05  1.9239732592795919e-05  9.7562237742280271e-06  0.0000000000000000e+00  0.0000000000000000e+00  -3.5223949386619914e-06  -6.8134273662020904e-06  -9.6576126125050096e-06  -1.1858382577062375e-05  -1.3246468905277399e-05  -1.3687212479546507e-05  -1.3086511264569866e-05  -1.1395171055954180e-05  -8.6114852925424908e-06  -4.7819384486349618e-06  -5.4548489025777065e-17  5.5969502270821096e-06  1.1832452203018496e-05  1.8497370186252341e-05  2.5357629285785208e-05  3.2162989951788676e-05  3.8656525641893771e-05  4.4584441121914372e-05  4.9705854967683760e-05  5.3802170378946253e-05  5.6685673382656429e-05  5.8207026323651470e-05  5.8261366115954390e-05  5.6792769469741343e-05  5.3796909202661629e-05  4.9321794428235013e-05  4.3466560273889939e-05  3.6378347053292940e-05  2.8247381698137489e-05  1.9300443004691743e-05  9.7929542876957943e-06  0.0000000000000000e+00  0.0000000000000000e+00  -4.3112955136389193e-06  -8.3742943923459041e-06  -1.1957425945932081e-05  -1.4849010572498134e-05  -1.6866099333283651e-05  -1.7862189071728949e-05  -1.7733510528084740e-05  -1.6423641915241504e-05  -1.3926264988977115e-05  -1.0285952292066621e-05  -5.5969502271941314e-06  -5.7490412908601696e-17  6.3226857028047656e-06  1.3154101092447020e-05  2.0250527381349103e-05  2.7350706849595444e-05  3.4185760462989623e-05  4.0489469413027876e-05  4.6008526284164920e-05  5.0512362013354603e-05  5.3802170378948510e-05  5.5718781849490007e-05  5.6149082089909415e-05  5.5030725603317258e-05  5.2354959773958057e-05  4.8167446498840689e-05  4.2567044911384562e-05  3.5702596507018101e-05  2.7767830323237301e-05  1.8994577807293241e-05  9.6445518823534521e-06  0.0000000000000000e+00  0.0000000000000000e+00  -5.1351425232062614e-06  -1.0006825212668556e-05  -1.4368884431964418e-05  -1.7995842375002621e-05  -2.0692124906956581e-05  -2.2300114913779420e-05  -2.2706726873592629e-05  -2.1848245342337539e-05  -1.9713236941846344e-05  -1.6343419683400109e-05  -1.1832452203132083e-05  -6.3226857029213030e-06  -5.9030733554734060e-17  6.9130809294254499e-06  1.4165732018369661e-05  2.1488310408673078e-05  2.8602616322242843e-05  3.5232538460599003e-05  4.1114675584485557e-05  4.6008526284167468e-05  4.9705854967688530e-05  5.2038873159270248e-05  5.2886920127672102e-05  5.2181383938470115e-05  4.9908671064417052e-05  4.6111107134038206e-05  4.0885730408945836e-05  3.4381020141154967e-05  2.6791681000445344e-05  1.8351679260816781e-05  9.3257935395350005e-06  0.0000000000000000e+00  0.0000000000000000e+00  -5.9693615607723969e-06  -1.1662195700502424e-05  -1.6819535524962987e-05  -2.1203704237255527e-05  -2.4607828137905673e-05  -2.6864156209654826e-05  -2.7850863234955478e-05  -2.7497071785805952e-05  -2.5785897003572885e-05  -2.2755394215145284e-05  -1.8497370186366176e-05  -1.3154101092563760e-05  -6.9130809295436593e-06  -5.9146802064886554e-17  7.3297786243211941e-06  1.4800918769388820e-05  2.2128615555257430e-05  2.9029501870557173e-05  3.5232538460601794e-05  4.0489469413033182e-05  4.4584441121921826e-05  4.7342414538467993e-05  4.8636046461078244e-05  4.8390774023039194e-05  4.6587905168917609e-05  4.3265594147004423e-05  3.8517661970150168e-05  3.2490304317530223e-05  2.5376810309096608e-05  1.7410491881867513e-05  8.8560922015199696e-06  0.0000000000000000e+00  0.0000000000000000e+00  -6.7869895910171444e-06  -1.3286801125033399e-05  -1.9229755708856676e-05  -2.4367869119932103e-05  -2.8484572462105419e-05  -3.1403221873153805e-05  -3.2994068535126863e-05  -3.3179419482997372e-05  -3.1936789309469639e-05  -2.9299920145432892e-05  -2.5357629285898043e-05  -2.0250527381464763e-05  -1.4165732018486714e-05  -7.3297786244382642e-06  -5.7893174392073832e-17  7.5452952645298167e-06  1.5017468948378524e-05  2.2128615555260385e-05  2.8602616322248559e-05  3.4185760462997788e-05  3.8656525641903997e-05  4.1834141751558008e-05  4.3585608576456092e-05  4.3830897090448244e-05  4.2546133689001047e-05  3.9764643937430770e-05  3.5575814464327867e-05  3.0121815303708875e-05  2.3592307084017974e-05  1.6217334827496987e-05  8.2586797848995030e-06  0.0000000000000000e+00  0.0000000000000000e+00  -7.5596631569795373e-06  -1.4824221785051220e-05  -2.1515672867076621e-05  -2.7377905454238014e-05  -3.2186537768069889e-05  -3.5757537384140357e-05  -3.7954293187650911e-05  -3.8692867326858908e-05  -3.7945225353427823e-05  -3.5740320433491081e-05  -3.2162989951899353e-05  -2.7350706849708831e-05  -2.1488310408787766e-05  -1.4800918769503452e-05  -7.5452952646431201e-06  -5.5396859481680023e-17  7.5452952645328584e-06  1.4800918769394788e-05  2.1488310408681748e-05  2.7350706849606476e-05  3.2162989951801646e-05  3.5740320433398965e-05  3.7945225353342185e-05  3.8692867326780568e-05  3.7954293187580628e-05  3.5757537384078808e-05  3.2186537768017671e-05  2.7377905454195619e-05  2.1515672867044465e-05  1.4824221785029611e-05  7.5596631569686800e-06  0.0000000000000000e+00  0.0000000000000000e+00  -8.2586797849103044e-06  -1.6217334827518485e-05  -2.3592307084049965e-05  -3.0121815303751054e-05  -3.5575814464379827e-05  -3.9764643937492014e-05  -4.2546133689070978e-05  -4.3830897090526191e-05  -4.3585608576541304e-05  -4.1834141751649670e-05  -3.8656525642001223e-05  -3.4185760463099642e-05  -2.8602616322354062e-05  -2.2128615555368520e-05  -1.5017468948488252e-05  -7.5452952646400767e-06  -5.1837810454168277e-17  7.3297786243301193e-06  1.4165732018381199e-05  2.0250527381362896e-05  2.5357629285800801e-05  2.9299920145341206e-05  3.1936789309384400e-05  3.3179419482919390e-05  3.2994068535056905e-05  3.1403221873092541e-05  2.8484572462053439e-05  2.4367869119889903e-05  1.9229755708824665e-05  1.3286801125011886e-05  6.7869895910063363e-06  0.0000000000000000e+00  0.0000000000000000e+00  -8.8560922015306117e-06  -1.7410491881888696e-05  -2.5376810309128131e-05  -3.2490304317571782e-05  -3.8517661970201362e-05  -4.3265594147064765e-05  -4.6587905168986517e-05  -4.8390774023116003e-05  -4.8636046461162215e-05  -4.7342414538558314e-05  -4.4584441122017636e-05  -4.0489469413133552e-05  -3.5232538460705763e-05  -2.9029501870663743e-05  -2.2128615555365566e-05  -1.4800918769497484e-05  -7.3297786244293416e-06  -4.7438174640291207e-17  6.9130809294396631e-06  1.3154101092463354e-05  1.8497370186270329e-05  2.2755394215054915e-05  2.5785897003488866e-05  2.7497071785729096e-05  2.7850863234886522e-05  2.6864156209594439e-05  2.4607828137854434e-05  2.1203704237213927e-05  1.6819535524931430e-05  1.1662195700481217e-05  5.9693615607617421e-06  0.0000000000000000e+00  0.0000000000000000e+00  -9.3257935395453817e-06  -1.8351679260837445e-05  -2.6791681000476091e-05  -3.4381020141195503e-05  -4.0885730408995777e-05  -4.6111107134097064e-05  -4.9908671064484265e-05  -5.2181383938545047e-05  -5.2886920127754013e-05  -5.2038873159358367e-05  -4.9705854967782002e-05  -4.6008526284265392e-05  -4.1114675584586991e-05  -3.5232538460702978e-05  -2.8602616322348349e-05  -2.1488310408779106e-05  -1.4165732018475181e-05  -6.9130809295294478e-06  -4.2443498257823565e-17  6.3226857028233301e-06  1.1832452203038554e-05  1.6343419683311926e-05  1.9713236941764358e-05  2.1848245342262539e-05  2.2706726873525341e-05  2.2300114913720490e-05  2.0692124906906576e-05  1.7995842374962024e-05  1.4368884431933625e-05  1.0006825212647861e-05  5.1351425231958632e-06  0.0000000000000000e+00  0.0000000000000000e+00  -9.6445518823634708e-06  -1.8994577807313184e-05  -2.7767830323266977e-05  -3.5702596507057228e-05  -4.2567044911432762e-05  -4.8167446498897501e-05  -5.2354959774022933e-05  -5.5030725603389581e-05  -5.6149082089988487e-05  -5.5718781849575077e-05  -5.3802170379038742e-05  -5.0512362013449139e-05  -4.6008526284262851e-05  -4.0489469413128253e-05  -3.4185760463091477e-05  -2.7350706849697803e-05  -2.0250527381450977e-05  -1.3154101092547427e-05  -6.3226857029027394e-06  -3.7105074237755637e-17  5.5969502271038258e-06  1.0285952291981478e-05  1.3926264988897953e-05  1.6423641915169086e-05  1.7733510528019766e-05  1.7862189071672045e-05  1.6866099333235364e-05  1.4849010572458934e-05  1.1957425945902343e-05  8.3742943923259192e-06  4.3112955136288778e-06  0.0000000000000000e+00  0.0000000000000000e+00  -9.7929542877053556e-06  -1.9300443004710777e-05  -2.8247381698165810e-05  -3.6378347053330284e-05  -4.3466560273935949e-05  -4.9321794428289243e-05  -5.3796909202723551e-05  -5.6792769469810380e-05  -5.8261366116029864e-05  -5.8207026323732670e-05  -5.6685673382742562e-05  -5.3802170379036493e-05  -4.9705854967777238e-05  -4.4584441122010188e-05  -3.8656525641991004e-05  -3.2162989951886383e-05  -2.5357629285882458e-05  -1.8497370186348192e-05  -1.1832452203112024e-05  -5.5969502271724143e-06  -3.1662323770329235e-17  4.7819384485536763e-06  8.6114852924669134e-06  1.1395171055885038e-05  1.3086511264507833e-05  1.3687212479492178e-05  1.3246468905231297e-05  1.1858382577024948e-05  9.6576126124766171e-06  6.8134273661830076e-06  3.5223949386524034e-06  0.0000000000000000e+00  0.0000000000000000e+00  -9.7562237742370395e-06  -1.9239732592813863e-05  -2.8186095299647725e-05  -3.6349465769225808e-05  -4.3511109463489207e-05  -4.9486913660463564e-05  -5.4133601116041104e-05  -5.7353417129570208e-05  -5.9097118565505396e-05  -5.9365158187806514e-05  -5.8207026323730746e-05  -5.5718781849570936e-05  -5.2038873159351794e-05  -4.7342414538549160e-05  -4.1834141751637866e-05  -3.5740320433476675e-05  -2.9299920145416023e-05  -2.2755394215126188e-05  -1.6343419683379106e-05  -1.0285952292044127e-05  -4.7819384486114558e-06  -2.6330307428814130e-17  3.9276305474806406e-06  6.9096955407294898e-06  8.8988471528907654e-06  9.8928246142000701e-06  9.9338346119957236e-06  9.1061653108681951e-06  7.5321327282554156e-06  5.3665226045839636e-06  2.7897489586194798e-06  0.0000000000000000e+00  0.0000000000000000e+00  -9.5248775461928429e-06  -1.8793418420931235e-05  -2.7555323138948918e-05  -3.5577609361675202e-05  -4.2652592010756821e-05  -4.8604915506385522e-05  -5.3297377365360661e-05  -5.6635329390249237e-05  -5.8569497149353478e-05  -5.9097118565503817e-05  -5.8261366116026402e-05  -5.6149082089982897e-05  -5.2886920127746092e-05  -4.8636046461151834e-05  -4.3585608576528442e-05  -3.7945225353412529e-05  -3.1936789309452061e-05  -2.5785897003553264e-05  -1.9713236941825002e-05  -1.3926264988954445e-05  -8.6114852925189568e-06  -3.9276305475280203e-06  -2.1290135393067609e-17  3.0838317187259298e-06  5.2767752724060287e-06  6.5733566626675384e-06  7.0091797570662878e-06  6.6587490265780255e-06  5.6317436556708961e-06  4.0678940167898099e-06  2.1306654202323607e-06  0.0000000000000000e+00  0.0000000000000000e+00  -9.0952008202427086e-06  -1.7953931306944912e-05  -2.6343418134749886e-05  -3.4046760095765197e-05  -4.0870276829178220e-05  -4.6649985589890985e-05  -5.1256968172341545e-05  -5.4601433303865425e-05  -5.6635329390247997e-05  -5.7353417129567437e-05  -5.6792769469805806e-05  -5.5030725603382988e-05  -5.2181383938536265e-05  -4.8390774023104944e-05  -4.3830897090512835e-05  -3.8692867326843323e-05  -3.3179419482979699e-05  -2.7497071785786433e-05  -2.1848245342316478e-05  -1.6423641915219284e-05  -1.1395171055931232e-05  -6.9096955407714975e-06  -3.0838317187636405e-06  -1.6680916436041861e-17  2.2961281