<?xml version="1.0"?>
<VTKFile type="UnstructuredGrid"  version="0.1"  >
<UnstructuredGrid>
<Piece  NumberOfPoints="1089" NumberOfCells="2048">
<Points>
<DataArray  type="Float64"  NumberOfComponents="3"  format="ascii">0 0 0  0.03125 0 0  0.0625 0 0  0.09375 0 0  0.125 0 0  0.15625 0 0  0.1875 0 0  0.21875 0 0  0.25 0 0  0.28125 0 0  0.3125 0 0  0.34375 0 0  0.375 0 0  0.40625 0 0  0.4375 0 0  0.46875 0 0  0.5 0 0  0.53125 0 0  0.5625 0 0  0.59375 0 0  0.625 0 0  0.65625 0 0  0.6875 0 0  0.71875 0 0  0.75 0 0  0.78125 0 0  0.8125 0 0  0.84375 0 0  0.875 0 0  0.90625 0 0  0.9375 0 0  0.96875 0 0  1 0 0  0 0.03125 0  0.03125 0.03125 0  0.0625 0.03125 0  0.09375 0.03125 0  0.125 0.03125 0  0.15625 0.03125 0  0.1875 0.03125 0  0.21875 0.03125 0  0.25 0.03125 0  0.28125 0.03125 0  0.3125 0.03125 0  0.34375 0.03125 0  0.375 0.03125 0  0.40625 0.03125 0  0.4375 0.03125 0  0.46875 0.03125 0  0.5 0.03125 0  0.53125 0.03125 0  0.5625 0.03125 0  0.59375 0.03125 0  0.625 0.03125 0  0.65625 0.03125 0  0.6875 0.03125 0  0.71875 0.03125 0  0.75 0.03125 0  0.78125 0.03125 0  0.8125 0.03125 0  0.84375 0.03125 0  0.875 0.03125 0  0.90625 0.03125 0  0.9375 0.03125 0  0.96875 0.03125 0  1 0.03125 0  0 0.0625 0  0.03125 0.0625 0  0.0625 0.0625 0  0.09375 0.0625 0  0.125 0.0625 0  0.15625 0.0625 0  0.1875 0.0625 0  0.21875 0.0625 0  0.25 0.0625 0  0.28125 0.0625 0  0.3125 0.0625 0  0.34375 0.0625 0  0.375 0.0625 0  0.40625 0.0625 0  0.4375 0.0625 0  0.46875 0.0625 0  0.5 0.0625 0  0.53125 0.0625 0  0.5625 0.0625 0  0.59375 0.0625 0  0.625 0.0625 0  0.65625 0.0625 0  0.6875 0.0625 0  0.71875 0.0625 0  0.75 0.0625 0  0.78125 0.0625 0  0.8125 0.0625 0  0.84375 0.0625 0  0.875 0.0625 0  0.90625 0.0625 0  0.9375 0.0625 0  0.96875 0.0625 0  1 0.0625 0  0 0.09375 0  0.03125 0.09375 0  0.0625 0.09375 0  0.09375 0.09375 0  0.125 0.09375 0  0.15625 0.09375 0  0.1875 0.09375 0  0.21875 0.09375 0  0.25 0.09375 0  0.28125 0.09375 0  0.3125 0.09375 0  0.34375 0.09375 0  0.375 0.09375 0  0.40625 0.09375 0  0.4375 0.09375 0  0.46875 0.09375 0  0.5 0.09375 0  0.53125 0.09375 0  0.5625 0.09375 0  0.59375 0.09375 0  0.625 0.09375 0  0.65625 0.09375 0  0.6875 0.09375 0  0.71875 0.09375 0  0.75 0.09375 0  0.78125 0.09375 0  0.8125 0.09375 0  0.84375 0.09375 0  0.875 0.09375 0  0.90625 0.09375 0  0.9375 0.09375 0  0.96875 0.09375 0  1 0.09375 0  0 0.125 0  0.03125 0.125 0  0.0625 0.125 0  0.09375 0.125 0  0.125 0.125 0  0.15625 0.125 0  0.1875 0.125 0  0.21875 0.125 0  0.25 0.125 0  0.28125 0.125 0  0.3125 0.125 0  0.34375 0.125 0  0.375 0.125 0  0.40625 0.125 0  0.4375 0.125 0  0.46875 0.125 0  0.5 0.125 0  0.53125 0.125 0  0.5625 0.125 0  0.59375 0.125 0  0.625 0.125 0  0.65625 0.125 0  0.6875 0.125 0  0.71875 0.125 0  0.75 0.125 0  0.78125 0.125 0  0.8125 0.125 0  0.84375 0.125 0  0.875 0.125 0  0.90625 0.125 0  0.9375 0.125 0  0.96875 0.125 0  1 0.125 0  0 0.15625 0  0.03125 0.15625 0  0.0625 0.15625 0  0.09375 0.15625 0  0.125 0.15625 0  0.15625 0.15625 0  0.1875 0.15625 0  0.21875 0.15625 0  0.25 0.15625 0  0.28125 0.15625 0  0.3125 0.15625 0  0.34375 0.15625 0  0.375 0.15625 0  0.40625 0.15625 0  0.4375 0.15625 0  0.46875 0.15625 0  0.5 0.15625 0  0.53125 0.15625 0  0.5625 0.15625 0  0.59375 0.15625 0  0.625 0.15625 0  0.65625 0.15625 0  0.6875 0.15625 0  0.71875 0.15625 0  0.75 0.15625 0  0.78125 0.15625 0  0.8125 0.15625 0  0.84375 0.15625 0  0.875 0.15625 0  0.90625 0.15625 0  0.9375 0.15625 0  0.96875 0.15625 0  1 0.15625 0  0 0.1875 0  0.03125 0.1875 0  0.0625 0.1875 0  0.09375 0.1875 0  0.125 0.1875 0  0.15625 0.1875 0  0.1875 0.1875 0  0.21875 0.1875 0  0.25 0.1875 0  0.28125 0.1875 0  0.3125 0.1875 0  0.34375 0.1875 0  0.375 0.1875 0  0.40625 0.1875 0  0.4375 0.1875 0  0.46875 0.1875 0  0.5 0.1875 0  0.53125 0.1875 0  0.5625 0.1875 0  0.59375 0.1875 0  0.625 0.1875 0  0.65625 0.1875 0  0.6875 0.1875 0  0.71875 0.1875 0  0.75 0.1875 0  0.78125 0.1875 0  0.8125 0.1875 0  0.84375 0.1875 0  0.875 0.1875 0  0.90625 0.1875 0  0.9375 0.1875 0  0.96875 0.1875 0  1 0.1875 0  0 0.21875 0  0.03125 0.21875 0  0.0625 0.21875 0  0.09375 0.21875 0  0.125 0.21875 0  0.15625 0.21875 0  0.1875 0.21875 0  0.21875 0.21875 0  0.25 0.21875 0  0.28125 0.21875 0  0.3125 0.21875 0  0.34375 0.21875 0  0.375 0.21875 0  0.40625 0.21875 0  0.4375 0.21875 0  0.46875 0.21875 0  0.5 0.21875 0  0.53125 0.21875 0  0.5625 0.21875 0  0.59375 0.21875 0  0.625 0.21875 0  0.65625 0.21875 0  0.6875 0.21875 0  0.71875 0.21875 0  0.75 0.21875 0  0.78125 0.21875 0  0.8125 0.21875 0  0.84375 0.21875 0  0.875 0.21875 0  0.90625 0.21875 0  0.9375 0.21875 0  0.96875 0.21875 0  1 0.21875 0  0 0.25 0  0.03125 0.25 0  0.0625 0.25 0  0.09375 0.25 0  0.125 0.25 0  0.15625 0.25 0  0.1875 0.25 0  0.21875 0.25 0  0.25 0.25 0  0.28125 0.25 0  0.3125 0.25 0  0.34375 0.25 0  0.375 0.25 0  0.40625 0.25 0  0.4375 0.25 0  0.46875 0.25 0  0.5 0.25 0  0.53125 0.25 0  0.5625 0.25 0  0.59375 0.25 0  0.625 0.25 0  0.65625 0.25 0  0.6875 0.25 0  0.71875 0.25 0  0.75 0.25 0  0.78125 0.25 0  0.8125 0.25 0  0.84375 0.25 0  0.875 0.25 0  0.90625 0.25 0  0.9375 0.25 0  0.96875 0.25 0  1 0.25 0  0 0.28125 0  0.03125 0.28125 0  0.0625 0.28125 0  0.09375 0.28125 0  0.125 0.28125 0  0.15625 0.28125 0  0.1875 0.28125 0  0.21875 0.28125 0  0.25 0.28125 0  0.28125 0.28125 0  0.3125 0.28125 0  0.34375 0.28125 0  0.375 0.28125 0  0.40625 0.28125 0  0.4375 0.28125 0  0.46875 0.28125 0  0.5 0.28125 0  0.53125 0.28125 0  0.5625 0.28125 0  0.59375 0.28125 0  0.625 0.28125 0  0.65625 0.28125 0  0.6875 0.28125 0  0.71875 0.28125 0  0.75 0.28125 0  0.78125 0.28125 0  0.8125 0.28125 0  0.84375 0.28125 0  0.875 0.28125 0  0.90625 0.28125 0  0.9375 0.28125 0  0.96875 0.28125 0  1 0.28125 0  0 0.3125 0  0.03125 0.3125 0  0.0625 0.3125 0  0.09375 0.3125 0  0.125 0.3125 0  0.15625 0.3125 0  0.1875 0.3125 0  0.21875 0.3125 0  0.25 0.3125 0  0.28125 0.3125 0  0.3125 0.3125 0  0.34375 0.3125 0  0.375 0.3125 0  0.40625 0.3125 0  0.4375 0.3125 0  0.46875 0.3125 0  0.5 0.3125 0  0.53125 0.3125 0  0.5625 0.3125 0  0.59375 0.3125 0  0.625 0.3125 0  0.65625 0.3125 0  0.6875 0.3125 0  0.71875 0.3125 0  0.75 0.3125 0  0.78125 0.3125 0  0.8125 0.3125 0  0.84375 0.3125 0  0.875 0.3125 0  0.90625 0.3125 0  0.9375 0.3125 0  0.96875 0.3125 0  1 0.3125 0  0 0.34375 0  0.03125 0.34375 0  0.0625 0.34375 0  0.09375 0.34375 0  0.125 0.34375 0  0.15625 0.34375 0  0.1875 0.34375 0  0.21875 0.34375 0  0.25 0.34375 0  0.28125 0.34375 0  0.3125 0.34375 0  0.34375 0.34375 0  0.375 0.34375 0  0.40625 0.34375 0  0.4375 0.34375 0  0.46875 0.34375 0  0.5 0.34375 0  0.53125 0.34375 0  0.5625 0.34375 0  0.59375 0.34375 0  0.625 0.34375 0  0.65625 0.34375 0  0.6875 0.34375 0  0.71875 0.34375 0  0.75 0.34375 0  0.78125 0.34375 0  0.8125 0.34375 0  0.84375 0.34375 0  0.875 0.34375 0  0.90625 0.34375 0  0.9375 0.34375 0  0.96875 0.34375 0  1 0.34375 0  0 0.375 0  0.03125 0.375 0  0.0625 0.375 0  0.09375 0.375 0  0.125 0.375 0  0.15625 0.375 0  0.1875 0.375 0  0.21875 0.375 0  0.25 0.375 0  0.28125 0.375 0  0.3125 0.375 0  0.34375 0.375 0  0.375 0.375 0  0.40625 0.375 0  0.4375 0.375 0  0.46875 0.375 0  0.5 0.375 0  0.53125 0.375 0  0.5625 0.375 0  0.59375 0.375 0  0.625 0.375 0  0.65625 0.375 0  0.6875 0.375 0  0.71875 0.375 0  0.75 0.375 0  0.78125 0.375 0  0.8125 0.375 0  0.84375 0.375 0  0.875 0.375 0  0.90625 0.375 0  0.9375 0.375 0  0.96875 0.375 0  1 0.375 0  0 0.40625 0  0.03125 0.40625 0  0.0625 0.40625 0  0.09375 0.40625 0  0.125 0.40625 0  0.15625 0.40625 0  0.1875 0.40625 0  0.21875 0.40625 0  0.25 0.40625 0  0.28125 0.40625 0  0.3125 0.40625 0  0.34375 0.40625 0  0.375 0.40625 0  0.40625 0.40625 0  0.4375 0.40625 0  0.46875 0.40625 0  0.5 0.40625 0  0.53125 0.40625 0  0.5625 0.40625 0  0.59375 0.40625 0  0.625 0.40625 0  0.65625 0.40625 0  0.6875 0.40625 0  0.71875 0.40625 0  0.75 0.40625 0  0.78125 0.40625 0  0.8125 0.40625 0  0.84375 0.40625 0  0.875 0.40625 0  0.90625 0.40625 0  0.9375 0.40625 0  0.96875 0.40625 0  1 0.40625 0  0 0.4375 0  0.03125 0.4375 0  0.0625 0.4375 0  0.09375 0.4375 0  0.125 0.4375 0  0.15625 0.4375 0  0.1875 0.4375 0  0.21875 0.4375 0  0.25 0.4375 0  0.28125 0.4375 0  0.3125 0.4375 0  0.34375 0.4375 0  0.375 0.4375 0  0.40625 0.4375 0  0.4375 0.4375 0  0.46875 0.4375 0  0.5 0.4375 0  0.53125 0.4375 0  0.5625 0.4375 0  0.59375 0.4375 0  0.625 0.4375 0  0.65625 0.4375 0  0.6875 0.4375 0  0.71875 0.4375 0  0.75 0.4375 0  0.78125 0.4375 0  0.8125 0.4375 0  0.84375 0.4375 0  0.875 0.4375 0  0.90625 0.4375 0  0.9375 0.4375 0  0.96875 0.4375 0  1 0.4375 0  0 0.46875 0  0.03125 0.46875 0  0.0625 0.46875 0  0.09375 0.46875 0  0.125 0.46875 0  0.15625 0.46875 0  0.1875 0.46875 0  0.21875 0.46875 0  0.25 0.46875 0  0.28125 0.46875 0  0.3125 0.46875 0  0.34375 0.46875 0  0.375 0.46875 0  0.40625 0.46875 0  0.4375 0.46875 0  0.46875 0.46875 0  0.5 0.46875 0  0.53125 0.46875 0  0.5625 0.46875 0  0.59375 0.46875 0  0.625 0.46875 0  0.65625 0.46875 0  0.6875 0.46875 0  0.71875 0.46875 0  0.75 0.46875 0  0.78125 0.46875 0  0.8125 0.46875 0  0.84375 0.46875 0  0.875 0.46875 0  0.90625 0.46875 0  0.9375 0.46875 0  0.96875 0.46875 0  1 0.46875 0  0 0.5 0  0.03125 0.5 0  0.0625 0.5 0  0.09375 0.5 0  0.125 0.5 0  0.15625 0.5 0  0.1875 0.5 0  0.21875 0.5 0  0.25 0.5 0  0.28125 0.5 0  0.3125 0.5 0  0.34375 0.5 0  0.375 0.5 0  0.40625 0.5 0  0.4375 0.5 0  0.46875 0.5 0  0.5 0.5 0  0.53125 0.5 0  0.5625 0.5 0  0.59375 0.5 0  0.625 0.5 0  0.65625 0.5 0  0.6875 0.5 0  0.71875 0.5 0  0.75 0.5 0  0.78125 0.5 0  0.8125 0.5 0  0.84375 0.5 0  0.875 0.5 0  0.90625 0.5 0  0.9375 0.5 0  0.96875 0.5 0  1 0.5 0  0 0.53125 0  0.03125 0.53125 0  0.0625 0.53125 0  0.09375 0.53125 0  0.125 0.53125 0  0.15625 0.53125 0  0.1875 0.53125 0  0.21875 0.53125 0  0.25 0.53125 0  0.28125 0.53125 0  0.3125 0.53125 0  0.34375 0.53125 0  0.375 0.53125 0  0.40625 0.53125 0  0.4375 0.53125 0  0.46875 0.53125 0  0.5 0.53125 0  0.53125 0.53125 0  0.5625 0.53125 0  0.59375 0.53125 0  0.625 0.53125 0  0.65625 0.53125 0  0.6875 0.53125 0  0.71875 0.53125 0  0.75 0.53125 0  0.78125 0.531
[...]
<PointData  Scalars="phi"> 
<DataArray  type="Float64"  Name="phi"  format="ascii">0.0000000000000000e+00  0.0000000000000000e+00  0.0000000000000000e+00  0.0000000000000000e+00  0.0000000000000000e+00  0.0000000000000000e+00  0.0000000000000000e+00  0.0000000000000000e+00  0.0000000000000000e+00  0.0000000000000000e+00  0.0000000000000000e+00  0.0000000000000000e+00  0.0000000000000000e+00  0.0000000000000000e+00  0.0000000000000000e+00  0.0000000000000000e+00  0.0000000000000000e+00  0.0000000000000000e+00  0.0000000000000000e+00  0.0000000000000000e+00  0.0000000000000000e+00  0.0000000000000000e+00  0.0000000000000000e+00  0.0000000000000000e+00  0.0000000000000000e+00  0.0000000000000000e+00  0.0000000000000000e+00  0.0000000000000000e+00  0.0000000000000000e+00  0.0000000000000000e+00  0.0000000000000000e+00  0.0000000000000000e+00  0.0000000000000000e+00  0.0000000000000000e+00  -2.1845807537190058e-18  8.8229409422153389e-08  3.4764532561400270e-07  8.5255795729864948e-07  1.6651066212571231e-06  2.8321699806998217e-06  4.3828673514516158e-06  6.3267665873011136e-06  8.6528797886573108e-06  1.1329494603070325e-05  1.4304855038676540e-05  1.7508671919384226e-05  2.0854410330653696e-05  2.4242270752534090e-05  2.7562753166323445e-05  3.0700670278351080e-05  3.3539458008385794e-05  3.5965619233037655e-05  3.7873130931414726e-05  3.9167645591413681e-05  3.9770324999256796e-05  3.9621158117120700e-05  3.8681634209794793e-05  3.6936667110633309e-05  3.4395695868325871e-05  3.1092920517693124e-05  2.7086669644183594e-05  2.2457941351476971e-05  1.7308220921763472e-05  1.1756789970714109e-05  5.9380186063021414e-06  0.0000000000000000e+00  0.0000000000000000e+00  -8.8229409430801503e-08  -8.5626687797996376e-18  4.3040239940386161e-07  1.3516375958852233e-06  2.8882001300218594e-06  5.1342270982076770e-06  8.1485000115687387e-06  1.1950859392456633e-05  1.6520190165024333e-05  2.1794071720337099e-05  2.7670120042554870e-05  3.4008982359958818e-05  4.0638879670629687e-05  4.7361531524324171e-05  5.3959242882002450e-05  6.0202886782833841e-05  6.5860480684733265e-05  7.0706030090300162e-05  7.4528301372936198e-05  7.7139187055008508e-05  7.8381341153674843e-05  7.8134789118304088e-05  7.6322255418459432e-05  7.2913000726255940e-05  6.7925018370619300e-05  6.1425504837527348e-05  5.3529590518239602e-05  4.4397394903896769e-05  3.4229557803482339e-05  2.3261500879209609e-05  1.1756789970714142e-05  0.0000000000000000e+00  0.0000000000000000e+00  -3.4764532562676955e-07  -4.3040239942914931e-07  -1.8673024531599266e-17  1.1666264605227949e-06  3.2566499223488030e-06  6.4120746774527581e-06  1.0722254805609084e-05  1.6218523628969292e-05  2.2871165219238205e-05  3.0588866009150417e-05  3.9220686733676226e-05  4.8560495847550623e-05  5.8353708895853418e-05  6.8306087674010460e-05  7.8094271833479068e-05  8.7377646965539763e-05  9.5811099761026108e-05  1.0305817466188550e-04  1.0880412890345541e-04  1.1276838470152846e-04  1.1471589854396544e-04  1.1446700736001702e-04  1.1190536833930737e-04  1.0698368133156902e-04  9.9726967562399179e-05  9.0233272984043358e-05  7.8671765849244353e-05  6.5278302636518501e-05  5.0348639519667115e-05  3.4229557803482508e-05  1.7308220921763608e-05  0.0000000000000000e+00  0.0000000000000000e+00  -8.5255795731530659e-07  -1.3516375959182212e-06  -1.1666264605715309e-06  -3.1800561020486507e-17  2.3984896593595747e-06  6.2195054986538719e-06  1.1584199052454223e-05  1.8537075696223882e-05  2.7041953336592205e-05  3.6981195180801673e-05  4.8158269220772915e-05  6.0303556928256586e-05  7.3083206442276026e-05  8.6110706118731968e-05  9.8960747284899475e-05  1.1118485451118857e-04  1.2232819116710924e-04  1.3194690019705199e-04  1.3962531679921064e-04  1.4499239194708293e-04  1.4773669341671878e-04  1.4761940316687373e-04  1.4448480463009704e-04  1.3826784792414281e-04  1.2899849163835163e-04  1.1680264246327501e-04  1.0189964360161004e-04  8.4596393745342064e-05  6.5278302636518961e-05  4.4397394903897305e-05  2.2457941351477307e-05  0.0000000000000000e+00  0.0000000000000000e+00  -1.6651066212773787e-06  -2.8882001300619888e-06  -3.2566499224080733e-06  -2.3984896594369202e-06  -4.7026196503114623e-17  4.1790375716104009e-06  1.0293030572224356e-05  1.8401711955156710e-05  2.8465093242261405e-05  4.0342456362126570e-05  5.3795449052106144e-05  6.8495188708790741e-05  8.4033123028731462e-05  9.9935248732629760e-05  1.1567915779040725e-04  1.3071326895124373e-04  1.4447751534357717e-04  1.5642469981597335e-04  1.6604170084187956e-04  1.7286971435277672e-04  1.7652275073564233e-04  1.7670367016966247e-04  1.7321713106108506e-04  1.6597894205907948e-04  1.5502144351248296e-04  1.4049469388427801e-04  1.2266339436509816e-04  1.0189964360161101e-04  7.8671765849245640e-05  5.3529590518240747e-05  2.7086669644184255e-05  0.0000000000000000e+00  0.0000000000000000e+00  -2.8321699807233273e-06  -5.1342270982542477e-06  -6.4120746775215414e-06  -6.2195054987436235e-06  -4.1790375717195258e-06  -6.3294332439234511e-17  6.5068564713950448e-06  1.5418817070663465e-05  2.6695165026808511e-05  4.0175909996990306e-05  5.5585359907884159e-05  7.2540424851251422e-05  9.0563357244866115e-05  1.0909845914716283e-04  1.2753213210498941e-04  1.4521551323123995e-04  1.6148883844564800e-04  1.7570660394833636e-04  1.8726256274885568e-04  1.9561359579204580e-04  2.0030153683267183e-04  2.0097210521626986e-04  1.9739020825180228e-04  1.8945101075883809e-04  1.7718632833146414e-04  1.6076607657437858e-04  1.4049469388427969e-04  1.1680264246327749e-04  9.0233272984045906e-05  6.1425504837529394e-05  3.1092920517694248e-05  0.0000000000000000e+00  0.0000000000000000e+00  -4.3828673514779763e-06  -8.1485000116209668e-06  -1.0722254805686218e-05  -1.1584199052554861e-05  -1.0293030572346695e-05  -6.5068564715369288e-06  -7.9489839327578652e-17  9.3248429966345130e-06  2.1429597378497266e-05  3.6139252057326102e-05  5.3145842491023018e-05  7.2017846337034443e-05  9.2214655649308942e-05  1.1310559100156733e-04  1.3399274520616993e-04  1.5413679374401540e-04  1.7278479144944140e-04  1.8919889495761581e-04  2.0268491102903179e-04  2.1261957366119967e-04  2.1847549780087632e-04  2.1984284277401194e-04  2.1644684097930699e-04  2.0816050221434331e-04  1.9501198519944119e-04  1.7718632833146677e-04  1.5502144351248708e-04  1.2899849163835629e-04  9.9726967562403462e-05  6.7925018370622553e-05  3.4395695868327613e-05  0.0000000000000000e+00  0.0000000000000000e+00  -6.3267665873298983e-06  -1.1950859392513659e-05  -1.6218523629053508e-05  -1.8537075696333742e-05  -1.8401711955290230e-05  -1.5418817070818272e-05  -9.3248429968079108e-06  -9.4519698632492954e-17  1.2523798855120699e-05  2.8061076282747861e-05  4.6277113422644369e-05  6.6698317734230383e-05  8.8728262421983796e-05  1.1166880282697465e-04  1.3474547693746584e-04  1.5713622912267409e-04  1.7800236487230351e-04  1.9652055481154005e-04  2.1191466202917056e-04  2.2348616953506340e-04  2.3064203437134833e-04  2.3291888964748481e-04  2.3000265191864516e-04  2.2174276363634977e-04  2.0816050221434705e-04  1.8945101075884429e-04  1.6597894205908688e-04  1.3826784792415027e-04  1.0698368133157551e-04  7.2913000726260724e-05  3.6936667110635837e-05  0.0000000000000000e+00  0.0000000000000000e+00  -8.6528797886880598e-06  -1.6520190165085252e-05  -2.2871165219328153e-05  -2.7041953336709523e-05  -2.8465093242403947e-05  -2.6695165026973726e-05  -2.1429597378682245e-05  -1.2523798855322260e-05  -1.0739222489119992e-16  1.5950563921899995e-05  3.4972242159640732e-05  5.6556179919069869e-05  8.0057745285948322e-05  1.0471952325097916e-04  1.2969901144774419e-04  1.5409996821579006e-04  1.7700621972209003e-04  1.9751663467546169e-04  2.1477992645490805e-04  2.2802794514539067e-04  2.3660617595691705e-04  2.4000026374271658e-04  2.3785753187853488e-04  2.3000265191865020e-04  2.1644684097931561e-04  1.9739020825181302e-04  1.7321713106109652e-04  1.4448480463010791e-04  1.1190536833931655e-04  7.6322255418466046e-05  3.8681634209798256e-05  0.0000000000000000e+00  0.0000000000000000e+00  -1.1329494603102565e-05  -2.1794071720400969e-05  -3.0588866009244709e-05  -3.6981195180924629e-05  -4.0342456362275919e-05  -4.0175909997163331e-05  -3.6139252057519727e-05  -2.8061076282958728e-05  -1.5950563922124541e-05  -1.1728168551408768e-16  1.9420007552196377e-05  4.1772447165706684e-05  6.6372525931351361e-05  9.2412299376923556e-05  1.1899037945033319e-04  1.4514559319448930e-04  1.6989330948018183e-04  1.9226304515793086e-04  2.1133590919954063e-04  2.2628044588154618e-04  2.3638549574779271e-04  2.4108880378674542e-04  2.4000026374272303e-04  2.3291888964749612e-04  2.1984284277402650e-04  2.0097210521628604e-04  1.7670367016967871e-04  1.4761940316688858e-04  1.1446700736002931e-04  7.8134789118312830e-05  3.9621158117125240e-05  0.0000000000000000e+00  0.0000000000000000e+00  -1.4304855038709795e-05  -2.7670120042620742e-05  -3.9220686733773452e-05  -4.8158269220899672e-05  -5.3795449052260053e-05  -5.5585359908062389e-05  -5.3145842491222362e-05  -4.6277113422861311e-05  -3.4972242159871565e-05  -1.9420007552437290e-05  -1.2358886505379113e-16  2.2729865063943830e-05  4.8052962959752716e-05  7.5119969145989165e-05  1.0298027829808132e-04  1.3061763853411781e-04  1.5698864131865941e-04  1.8106259472255807e-04  2.0186125129933809e-04  2.1849686404900695e-04  2.3020710472049786e-04  2.3638549574780057e-04  2.3660617595693117e-04  2.3064203437136700e-04  2.1847549780089776e-04  2.0030153683269422e-04  1.7652275073566398e-04  1.4773669341673816e-04  1.1471589854398121e-04  7.8381341153685956e-05  3.9770324999262528e-05  0.0000000000000000e+00  0.0000000000000000e+00  -1.7508671919418026e-05  -3.4008982360025760e-05  -4.8560495847649414e-05  -6.0303556928385335e-05  -6.8495188708947029e-05  -7.2540424851432294e-05  -7.2017846337236606e-05  -6.6698317734450232e-05  -5.6556179919303589e-05  -4.1772447165950358e-05  -2.2729865064193549e-05  -1.2597669014037719e-16  2.5677161138768400e-05  5.3420332634253346e-05  8.2239744177661195e-05  1.1107439781838774e-04  1.3883234456317444e-04  1.6443243890433613e-04  1.8684597000089467e-04  2.0513657010286072e-04  2.1849686404901614e-04  2.2628044588156307e-04  2.2802794514541352e-04  2.2348616953509035e-04  2.1261957366122870e-04  1.9561359579207504e-04  1.7286971435280431e-04  1.4499239194710721e-04  1.1276838470154799e-04  7.7139187055022169e-05  3.9167645591420708e-05  0.0000000000000000e+00  0.0000000000000000e+00  -2.0854410330687587e-05  -4.0638879670696806e-05  -5.8353708895952446e-05  -7.3083206442405032e-05  -8.4033123028887980e-05  -9.0563357245047164e-05  -9.2214655649511159e-05  -8.8728262422203510e-05  -8.0057745286181669e-05  -6.6372525931594371e-05  -4.8052962960001425e-05  -2.5677161139018959e-05  -1.2437869273814742e-16  2.8074824739657481e-05  5.7528683344502710e-05  8.7266524843545565e-05  1.1615854761978328e-04  1.4308343161453758e-04  1.6697147379615246e-04  1.8684597000090506e-04  2.0186125129935753e-04  2.1133590919956746e-04  2.1477992645494039e-04  2.1191466202920636e-04  2.0268491102906898e-04  1.8726256274889221e-04  1.6604170084191344e-04  1.3962531679924007e-04  1.0880412890347891e-04  7.4528301372952556e-05  3.7873130931423101e-05  0.0000000000000000e+00  0.0000000000000000e+00  -2.4242270752567650e-05  -4.7361531524390619e-05  -6.8306087674108472e-05  -8.6110706118859605e-05  -9.9935248732784516e-05  -1.0909845914734173e-04  -1.1310559100176701e-04  -1.1166880282719141e-04  -1.0471952325120912e-04  -9.2412299377162704e-05  -7.5119969146233571e-05  -5.3420332634499162e-05  -2.8074824739901064e-05  -1.1900002080129183e-16  2.9767082485954856e-05  6.0108250529353713e-05  8.9866878427384119e-05  1.1789217942232196e-04  1.4308343161454894e-04  1.6443243890435774e-04  1.8106259472258846e-04  1.9226304515796821e-04  1.9751663467550400e-04  1.9652055481158515e-04  1.8919889495766149e-04  1.7570660394838038e-04  1.5642469981601366e-04  1.3194690019708671e-04  1.0305817466191303e-04  7.0706030090319231e-05  3.5965619233047406e-05  0.0000000000000000e+00  0.0000000000000000e+00  -2.7562753166356276e-05  -5.3959242882067448e-05  -7.8094271833574925e-05  -9.8960747285024240e-05  -1.1567915779055844e-04  -1.2753213210516407e-04  -1.3399274520636470e-04  -1.3474547693767704e-04  -1.2969901144796800e-04  -1.1899037945056561e-04  -1.0298027829831847e-04  -8.2239744177899259e-05  -5.7528683344738097e-05  -2.9767082486184304e-05  -1.1029811418140725e-16  3.0642320598179754e-05  6.0987685962632478e-05  8.9866878427396167e-05  1.1615854761980657e-04  1.3883234456320769e-04  1.5698864131870105e-04  1.6989330948022994e-04  1.7700621972214245e-04  1.7800236487235796e-04  1.7278479144949553e-04  1.6148883844569950e-04  1.4447751534362387e-04  1.2232819116714917e-04  9.5811099761057604e-05  6.5860480684755003e-05  3.3539458008396893e-05  0.0000000000000000e+00  0.0000000000000000e+00  -3.0700670278382840e-05  -6.0202886782896711e-05  -8.7377646965632435e-05  -1.1118485451130915e-04  -1.3071326895138974e-04  -1.4521551323140851e-04  -1.5413679374420318e-04  -1.5713622912287748e-04  -1.5409996821600527e-04  -1.4514559319471246e-04  -1.3061763853434508e-04  -1.1107439781861541e-04  -8.7266524843770157e-05  -6.0108250529572044e-05  -3.0642320598389019e-05  -9.8912889014585919e-17  3.0642320598192148e-05  6.0108250529378020e-05  8.7266524843580855e-05  1.1107439781843266e-04  1.3061763853417063e-04  1.4514559319454799e-04  1.5409996821585234e-04  1.5713622912273760e-04  1.5413679374407768e-04  1.4521551323129863e-04  1.3071326895129653e-04  1.1118485451123347e-04  8.7377646965575026e-05  6.0202886782858127e-05  3.0700670278363453e-05  0.0000000000000000e+00  0.0000000000000000e+00  -3.3539458008416172e-05  -6.5860480684793384e-05  -9.5811099761114715e-05  -1.2232819116722446e-04  -1.4447751534371663e-04  -1.6148883844580882e-04  -1.7278479144962038e-04  -1.7800236487249712e-04  -1.7700621972229456e-04  -1.6989330948039358e-04  -1.5698864131887463e-04  -1.3883234456338954e-04  -1.1615854761999492e-04  -8.9866878427589237e-05  -6.0987685962828387e-05  -3.0642320598376625e-05  -8.5635877106095853e-17  2.9767082485991204e-05  5.7528683344549690e-05  8.2239744177717357e-05  1.0298027829814482e-04  1.1899037945040188e-04  1.2969901144781578e-04  1.3474547693753783e-04  1.3399274520623977e-04  1.2753213210505468e-04  1.1567915779046562e-04  9.8960747284948902e-05  7.8094271833517774e-05  5.3959242882029040e-05  2.7562753166336981e-05  0.0000000000000000e+00  0.0000000000000000e+00  -3.5965619233066400e-05  -7.0706030090357042e-05  -1.0305817466196928e-04  -1.3194690019716087e-04  -1.5642469981610503e-04  -1.7570660394848809e-04  -1.8919889495778449e-04  -1.9652055481172225e-04  -1.9751663467565389e-04  -1.9226304515812946e-04  -1.8106259472275949e-04  -1.6443243890453693e-04  -1.4308343161473455e-04  -1.1789217942251222e-04  -8.9866878427577202e-05  -6.0108250529547731e-05  -2.9767082486147956e-05  -7.1316290944306337e-17  2.8074824739715364e-05  5.3420332634319862e-05  7.5119969146062417e-05  9.2412299377001334e-05  1.0471952325105907e-04  1.1166880282705415e-04  1.1310559100164387e-04  1.0909845914723390e-04  9.9935248732693023e-05  8.6110706118785324e-05  6.8306087674052134e-05  4.7361531524352753e-05  2.4242270752548626e-05  0.0000000000000000e+00  0.0000000000000000e+00  -3.7873130931441627e-05  -7.4528301372989419e-05  -1.0880412890353377e-04  -1.3962531679931242e-04  -1.6604170084200256e-04  -1.8726256274899727e-04  -2.0268491102918898e-04  -2.1191466202934010e-04  -2.1477992645508660e-04  -2.1133590919972473e-04  -2.0186125129952436e-04  -1.8684597000107988e-04  -1.6697147379633354e-04  -1.4308343161472322e-04  -1.1615854761997166e-04  -8.7266524843734866e-05  -5.7528683344691110e-05  -2.8074824739843177e-05  -5.6821253638563414e-17  2.5677161138844006e-05  4.8052962959834403e-05  6.6372525931436891e-05  8.0057745286035248e-05  8.8728262422069570e-05  9.2214655649390989e-05  9.0563357244941915e-05  8.4033123028798669e-05  7.3083206442332540e-05  5.8353708895897457e-05  4.0638879670659848e-05  2.0854410330669020e-05  0.0000000000000000e+00  0.0000000000000000e+00  -3.9167645591438584e-05  -7.7139187055057744e-05  -1.1276838470160095e-04  -1.4499239194717704e-04  -1.7286971435289035e-04  -1.9561359579217644e-04  -2.1261957366134452e-04  -2.2348616953521942e-04  -2.2802794514555465e-04  -2.2628044588171491e-04  -2.1849686404917722e-04  -2.0513657010302950e-04  -1.8684597000106953e-04  -1.6443243890451535e-04  -1.3883234456335628e-04  -1.1107439781857050e-04  -8.2239744177843097e-05  -5.3420332634432626e-05  -2.5677161138943350e-05  -4.2949940427473906e-17  2.2729865064032281e-05  4.1772447165798299e-05  5.6556179919162202e-05  6.6698317734320900e-05  7.2017846337120556e-05  7.2540424851330664e-05  6.8495188708860781e-05  6.0303556928315323e-05  4.8560495847596309e-05  3.4008982359990070e-05  1.7508671919400093e-05  0.0000000000000000e+00  0.0000000000000000e+00  -3.9770324999279584e-05  -7.8381341153719919e-05  -1.1471589854403174e-04  -1.4773669341680481e-04  -1.7652275073574606e-04  -2.0030153683279098e-04  -2.1847549780100827e-04  -2.3064203437149020e-04  -2.3660617595706588e-04  -2.3638549574794550e-04  -2.3020710472065160e-04  -2.1849686404916803e-04  -2.0186125129950498e-04  -1.8106259472272916e-04  -1.5698864131883302e-04  -1.3061763853429228e-04  -1.0298027829825496e-04  -7.5119969146160320e-05  -4.8052962959919730e-05  -2.2729865064105098e-05  -3.0373652945023372e-17  1.9420007552292119e-05  3.4972242159736589e-05  4.6277113422737827e-05  5.3145842491111563e-05  5.5585359907965346e-05  5.3795449052177708e-05  4.8158269220832817e-05  3.9220686733722738e-05  2.7670120042586658e-05  1.4304855038692669e-05  0.0000000000000000e+00  0.0000000000000000e+00  -3.9621158117141314e-05  -7.8134789118344827e-05  -1.1446700736007693e-04  -1.4761940316695139e-04  -1.7670367016975607e-04  -2.0097210521637722e-04  -2.1984284277413066e-04  -2.3291888964761226e-04  -2.4000026374284999e-04  -2.4108880378688203e-04  -2.3638549574793766e-04  -2.2628044588169805e-04  -2.1133590919969795e-04  -1.9226304515809214e-04  -1.6989330948034549e-04  -1.4514559319465378e-04  -1.1899037945049689e-04  -9.2412299377084913e-05  -6.6372525931508827e-05  -4.1772447165858743e-05  -1.9420007552341545e-05  -1.9601038760719469e-17  1.5950563921997265e-05  2.8061076282842291e-05  3.6139252057415251e-05  4.0175909997071824e-05  4.0342456362198263e-05  3.6981195180861582e-05  3.0588866009196882e-05  2.1794071720368822e-05  1.1329494603086414e-05  0.0000000000000000e+00  0.0000000000000000e+00  -3.8681634209813190e-05  -7.6322255418495780e-05  -1.1190536833936081e-04  -1.4448480463016627e-04  -1.7321713106116841e-04  -1.9739020825189777e-04  -2.1644684097941243e-04  -2.3000265191875814e-04  -2.3785753187865289e-04  -2.4000026374284357e-04  -2.3660617595705176e-04  -2.2802794514553183e-04  -2.1477992645505431e-04  -1.9751663467561161e-04  -1.7700621972224217e-04  -1.5409996821594298e-04  -1.2969901144789642e-04  -1.0471952325112919e-04  -8.0057745286094730e-05  -5.6556179919211249e-05  -3.4972242159775708e-05  -1.5950563922027267e-05  -1.0949448648586433e-17  1.2523798855213994e-05  2.1429597378585097e-05  2.6695165026888636e-05  2.8465093242331742e-05  2.7041953336650898e-05  2.2871165219283677e-05  1.6520190165055358e-05  8.6528797886730402e-06  0.0000000000000000e+00  0.0000000000000000e+00  -3.6936667110649497e-05  -7.2913000726287924e-05  -1.0698368133161599e-04  -1.3826784792420364e-04  -1.6597894205915264e-04  -1.8945101075892182e-04  -2.0816050221443561e-04  -2.2174276363644849e-04  -2.3000265191875312e-04  -2.3291888964760096e-04  -2.3064203437147155e-04  -2.2348616953519256e-04  -2.1191466202930435e-04  -1.9652055481167720e-04  -1.7800236487244269e-04  -1.5713622912281398e-04  -1.3474547693760508e-04  -1.1166880282711189e-04  -8.8728262422117722e-05  -6.6698317734359714e-05  -4.6277113422767846e-05  -2.8061076282864294e-05  -1.2523798855228965e-05  -4.5321335804801155e-18  9.3248429