<?xml version="1.0"?>
<VTKFile type="UnstructuredGrid"  version="0.1"  >
<UnstructuredGrid>
<Piece  NumberOfPoints="1089" NumberOfCells="2048">
<Points>
<DataArray  type="Float64"  NumberOfComponents="3"  format="ascii">0 0 0  0.03125 0 0  0.0625 0 0  0.09375 0 0  0.125 0 0  0.15625 0 0  0.1875 0 0  0.21875 0 0  0.25 0 0  0.28125 0 0  0.3125 0 0  0.34375 0 0  0.375 0 0  0.40625 0 0  0.4375 0 0  0.46875 0 0  0.5 0 0  0.53125 0 0  0.5625 0 0  0.59375 0 0  0.625 0 0  0.65625 0 0  0.6875 0 0  0.71875 0 0  0.75 0 0  0.78125 0 0  0.8125 0 0  0.84375 0 0  0.875 0 0  0.90625 0 0  0.9375 0 0  0.96875 0 0  1 0 0  0 0.03125 0  0.03125 0.03125 0  0.0625 0.03125 0  0.09375 0.03125 0  0.125 0.03125 0  0.15625 0.03125 0  0.1875 0.03125 0  0.21875 0.03125 0  0.25 0.03125 0  0.28125 0.03125 0  0.3125 0.03125 0  0.34375 0.03125 0  0.375 0.03125 0  0.40625 0.03125 0  0.4375 0.03125 0  0.46875 0.03125 0  0.5 0.03125 0  0.53125 0.03125 0  0.5625 0.03125 0  0.59375 0.03125 0  0.625 0.03125 0  0.65625 0.03125 0  0.6875 0.03125 0  0.71875 0.03125 0  0.75 0.03125 0  0.78125 0.03125 0  0.8125 0.03125 0  0.84375 0.03125 0  0.875 0.03125 0  0.90625 0.03125 0  0.9375 0.03125 0  0.96875 0.03125 0  1 0.03125 0  0 0.0625 0  0.03125 0.0625 0  0.0625 0.0625 0  0.09375 0.0625 0  0.125 0.0625 0  0.15625 0.0625 0  0.1875 0.0625 0  0.21875 0.0625 0  0.25 0.0625 0  0.28125 0.0625 0  0.3125 0.0625 0  0.34375 0.0625 0  0.375 0.0625 0  0.40625 0.0625 0  0.4375 0.0625 0  0.46875 0.0625 0  0.5 0.0625 0  0.53125 0.0625 0  0.5625 0.0625 0  0.59375 0.0625 0  0.625 0.0625 0  0.65625 0.0625 0  0.6875 0.0625 0  0.71875 0.0625 0  0.75 0.0625 0  0.78125 0.0625 0  0.8125 0.0625 0  0.84375 0.0625 0  0.875 0.0625 0  0.90625 0.0625 0  0.9375 0.0625 0  0.96875 0.0625 0  1 0.0625 0  0 0.09375 0  0.03125 0.09375 0  0.0625 0.09375 0  0.09375 0.09375 0  0.125 0.09375 0  0.15625 0.09375 0  0.1875 0.09375 0  0.21875 0.09375 0  0.25 0.09375 0  0.28125 0.09375 0  0.3125 0.09375 0  0.34375 0.09375 0  0.375 0.09375 0  0.40625 0.09375 0  0.4375 0.09375 0  0.46875 0.09375 0  0.5 0.09375 0  0.53125 0.09375 0  0.5625 0.09375 0  0.59375 0.09375 0  0.625 0.09375 0  0.65625 0.09375 0  0.6875 0.09375 0  0.71875 0.09375 0  0.75 0.09375 0  0.78125 0.09375 0  0.8125 0.09375 0  0.84375 0.09375 0  0.875 0.09375 0  0.90625 0.09375 0  0.9375 0.09375 0  0.96875 0.09375 0  1 0.09375 0  0 0.125 0  0.03125 0.125 0  0.0625 0.125 0  0.09375 0.125 0  0.125 0.125 0  0.15625 0.125 0  0.1875 0.125 0  0.21875 0.125 0  0.25 0.125 0  0.28125 0.125 0  0.3125 0.125 0  0.34375 0.125 0  0.375 0.125 0  0.40625 0.125 0  0.4375 0.125 0  0.46875 0.125 0  0.5 0.125 0  0.53125 0.125 0  0.5625 0.125 0  0.59375 0.125 0  0.625 0.125 0  0.65625 0.125 0  0.6875 0.125 0  0.71875 0.125 0  0.75 0.125 0  0.78125 0.125 0  0.8125 0.125 0  0.84375 0.125 0  0.875 0.125 0  0.90625 0.125 0  0.9375 0.125 0  0.96875 0.125 0  1 0.125 0  0 0.15625 0  0.03125 0.15625 0  0.0625 0.15625 0  0.09375 0.15625 0  0.125 0.15625 0  0.15625 0.15625 0  0.1875 0.15625 0  0.21875 0.15625 0  0.25 0.15625 0  0.28125 0.15625 0  0.3125 0.15625 0  0.34375 0.15625 0  0.375 0.15625 0  0.40625 0.15625 0  0.4375 0.15625 0  0.46875 0.15625 0  0.5 0.15625 0  0.53125 0.15625 0  0.5625 0.15625 0  0.59375 0.15625 0  0.625 0.15625 0  0.65625 0.15625 0  0.6875 0.15625 0  0.71875 0.15625 0  0.75 0.15625 0  0.78125 0.15625 0  0.8125 0.15625 0  0.84375 0.15625 0  0.875 0.15625 0  0.90625 0.15625 0  0.9375 0.15625 0  0.96875 0.15625 0  1 0.15625 0  0 0.1875 0  0.03125 0.1875 0  0.0625 0.1875 0  0.09375 0.1875 0  0.125 0.1875 0  0.15625 0.1875 0  0.1875 0.1875 0  0.21875 0.1875 0  0.25 0.1875 0  0.28125 0.1875 0  0.3125 0.1875 0  0.34375 0.1875 0  0.375 0.1875 0  0.40625 0.1875 0  0.4375 0.1875 0  0.46875 0.1875 0  0.5 0.1875 0  0.53125 0.1875 0  0.5625 0.1875 0  0.59375 0.1875 0  0.625 0.1875 0  0.65625 0.1875 0  0.6875 0.1875 0  0.71875 0.1875 0  0.75 0.1875 0  0.78125 0.1875 0  0.8125 0.1875 0  0.84375 0.1875 0  0.875 0.1875 0  0.90625 0.1875 0  0.9375 0.1875 0  0.96875 0.1875 0  1 0.1875 0  0 0.21875 0  0.03125 0.21875 0  0.0625 0.21875 0  0.09375 0.21875 0  0.125 0.21875 0  0.15625 0.21875 0  0.1875 0.21875 0  0.21875 0.21875 0  0.25 0.21875 0  0.28125 0.21875 0  0.3125 0.21875 0  0.34375 0.21875 0  0.375 0.21875 0  0.40625 0.21875 0  0.4375 0.21875 0  0.46875 0.21875 0  0.5 0.21875 0  0.53125 0.21875 0  0.5625 0.21875 0  0.59375 0.21875 0  0.625 0.21875 0  0.65625 0.21875 0  0.6875 0.21875 0  0.71875 0.21875 0  0.75 0.21875 0  0.78125 0.21875 0  0.8125 0.21875 0  0.84375 0.21875 0  0.875 0.21875 0  0.90625 0.21875 0  0.9375 0.21875 0  0.96875 0.21875 0  1 0.21875 0  0 0.25 0  0.03125 0.25 0  0.0625 0.25 0  0.09375 0.25 0  0.125 0.25 0  0.15625 0.25 0  0.1875 0.25 0  0.21875 0.25 0  0.25 0.25 0  0.28125 0.25 0  0.3125 0.25 0  0.34375 0.25 0  0.375 0.25 0  0.40625 0.25 0  0.4375 0.25 0  0.46875 0.25 0  0.5 0.25 0  0.53125 0.25 0  0.5625 0.25 0  0.59375 0.25 0  0.625 0.25 0  0.65625 0.25 0  0.6875 0.25 0  0.71875 0.25 0  0.75 0.25 0  0.78125 0.25 0  0.8125 0.25 0  0.84375 0.25 0  0.875 0.25 0  0.90625 0.25 0  0.9375 0.25 0  0.96875 0.25 0  1 0.25 0  0 0.28125 0  0.03125 0.28125 0  0.0625 0.28125 0  0.09375 0.28125 0  0.125 0.28125 0  0.15625 0.28125 0  0.1875 0.28125 0  0.21875 0.28125 0  0.25 0.28125 0  0.28125 0.28125 0  0.3125 0.28125 0  0.34375 0.28125 0  0.375 0.28125 0  0.40625 0.28125 0  0.4375 0.28125 0  0.46875 0.28125 0  0.5 0.28125 0  0.53125 0.28125 0  0.5625 0.28125 0  0.59375 0.28125 0  0.625 0.28125 0  0.65625 0.28125 0  0.6875 0.28125 0  0.71875 0.28125 0  0.75 0.28125 0  0.78125 0.28125 0  0.8125 0.28125 0  0.84375 0.28125 0  0.875 0.28125 0  0.90625 0.28125 0  0.9375 0.28125 0  0.96875 0.28125 0  1 0.28125 0  0 0.3125 0  0.03125 0.3125 0  0.0625 0.3125 0  0.09375 0.3125 0  0.125 0.3125 0  0.15625 0.3125 0  0.1875 0.3125 0  0.21875 0.3125 0  0.25 0.3125 0  0.28125 0.3125 0  0.3125 0.3125 0  0.34375 0.3125 0  0.375 0.3125 0  0.40625 0.3125 0  0.4375 0.3125 0  0.46875 0.3125 0  0.5 0.3125 0  0.53125 0.3125 0  0.5625 0.3125 0  0.59375 0.3125 0  0.625 0.3125 0  0.65625 0.3125 0  0.6875 0.3125 0  0.71875 0.3125 0  0.75 0.3125 0  0.78125 0.3125 0  0.8125 0.3125 0  0.84375 0.3125 0  0.875 0.3125 0  0.90625 0.3125 0  0.9375 0.3125 0  0.96875 0.3125 0  1 0.3125 0  0 0.34375 0  0.03125 0.34375 0  0.0625 0.34375 0  0.09375 0.34375 0  0.125 0.34375 0  0.15625 0.34375 0  0.1875 0.34375 0  0.21875 0.34375 0  0.25 0.34375 0  0.28125 0.34375 0  0.3125 0.34375 0  0.34375 0.34375 0  0.375 0.34375 0  0.40625 0.34375 0  0.4375 0.34375 0  0.46875 0.34375 0  0.5 0.34375 0  0.53125 0.34375 0  0.5625 0.34375 0  0.59375 0.34375 0  0.625 0.34375 0  0.65625 0.34375 0  0.6875 0.34375 0  0.71875 0.34375 0  0.75 0.34375 0  0.78125 0.34375 0  0.8125 0.34375 0  0.84375 0.34375 0  0.875 0.34375 0  0.90625 0.34375 0  0.9375 0.34375 0  0.96875 0.34375 0  1 0.34375 0  0 0.375 0  0.03125 0.375 0  0.0625 0.375 0  0.09375 0.375 0  0.125 0.375 0  0.15625 0.375 0  0.1875 0.375 0  0.21875 0.375 0  0.25 0.375 0  0.28125 0.375 0  0.3125 0.375 0  0.34375 0.375 0  0.375 0.375 0  0.40625 0.375 0  0.4375 0.375 0  0.46875 0.375 0  0.5 0.375 0  0.53125 0.375 0  0.5625 0.375 0  0.59375 0.375 0  0.625 0.375 0  0.65625 0.375 0  0.6875 0.375 0  0.71875 0.375 0  0.75 0.375 0  0.78125 0.375 0  0.8125 0.375 0  0.84375 0.375 0  0.875 0.375 0  0.90625 0.375 0  0.9375 0.375 0  0.96875 0.375 0  1 0.375 0  0 0.40625 0  0.03125 0.40625 0  0.0625 0.40625 0  0.09375 0.40625 0  0.125 0.40625 0  0.15625 0.40625 0  0.1875 0.40625 0  0.21875 0.40625 0  0.25 0.40625 0  0.28125 0.40625 0  0.3125 0.40625 0  0.34375 0.40625 0  0.375 0.40625 0  0.40625 0.40625 0  0.4375 0.40625 0  0.46875 0.40625 0  0.5 0.40625 0  0.53125 0.40625 0  0.5625 0.40625 0  0.59375 0.40625 0  0.625 0.40625 0  0.65625 0.40625 0  0.6875 0.40625 0  0.71875 0.40625 0  0.75 0.40625 0  0.78125 0.40625 0  0.8125 0.40625 0  0.84375 0.40625 0  0.875 0.40625 0  0.90625 0.40625 0  0.9375 0.40625 0  0.96875 0.40625 0  1 0.40625 0  0 0.4375 0  0.03125 0.4375 0  0.0625 0.4375 0  0.09375 0.4375 0  0.125 0.4375 0  0.15625 0.4375 0  0.1875 0.4375 0  0.21875 0.4375 0  0.25 0.4375 0  0.28125 0.4375 0  0.3125 0.4375 0  0.34375 0.4375 0  0.375 0.4375 0  0.40625 0.4375 0  0.4375 0.4375 0  0.46875 0.4375 0  0.5 0.4375 0  0.53125 0.4375 0  0.5625 0.4375 0  0.59375 0.4375 0  0.625 0.4375 0  0.65625 0.4375 0  0.6875 0.4375 0  0.71875 0.4375 0  0.75 0.4375 0  0.78125 0.4375 0  0.8125 0.4375 0  0.84375 0.4375 0  0.875 0.4375 0  0.90625 0.4375 0  0.9375 0.4375 0  0.96875 0.4375 0  1 0.4375 0  0 0.46875 0  0.03125 0.46875 0  0.0625 0.46875 0  0.09375 0.46875 0  0.125 0.46875 0  0.15625 0.46875 0  0.1875 0.46875 0  0.21875 0.46875 0  0.25 0.46875 0  0.28125 0.46875 0  0.3125 0.46875 0  0.34375 0.46875 0  0.375 0.46875 0  0.40625 0.46875 0  0.4375 0.46875 0  0.46875 0.46875 0  0.5 0.46875 0  0.53125 0.46875 0  0.5625 0.46875 0  0.59375 0.46875 0  0.625 0.46875 0  0.65625 0.46875 0  0.6875 0.46875 0  0.71875 0.46875 0  0.75 0.46875 0  0.78125 0.46875 0  0.8125 0.46875 0  0.84375 0.46875 0  0.875 0.46875 0  0.90625 0.46875 0  0.9375 0.46875 0  0.96875 0.46875 0  1 0.46875 0  0 0.5 0  0.03125 0.5 0  0.0625 0.5 0  0.09375 0.5 0  0.125 0.5 0  0.15625 0.5 0  0.1875 0.5 0  0.21875 0.5 0  0.25 0.5 0  0.28125 0.5 0  0.3125 0.5 0  0.34375 0.5 0  0.375 0.5 0  0.40625 0.5 0  0.4375 0.5 0  0.46875 0.5 0  0.5 0.5 0  0.53125 0.5 0  0.5625 0.5 0  0.59375 0.5 0  0.625 0.5 0  0.65625 0.5 0  0.6875 0.5 0  0.71875 0.5 0  0.75 0.5 0  0.78125 0.5 0  0.8125 0.5 0  0.84375 0.5 0  0.875 0.5 0  0.90625 0.5 0  0.9375 0.5 0  0.96875 0.5 0  1 0.5 0  0 0.53125 0  0.03125 0.53125 0  0.0625 0.53125 0  0.09375 0.53125 0  0.125 0.53125 0  0.15625 0.53125 0  0.1875 0.53125 0  0.21875 0.53125 0  0.25 0.53125 0  0.28125 0.53125 0  0.3125 0.53125 0  0.34375 0.53125 0  0.375 0.53125 0  0.40625 0.53125 0  0.4375 0.53125 0  0.46875 0.53125 0  0.5 0.53125 0  0.53125 0.53125 0  0.5625 0.53125 0  0.59375 0.53125 0  0.625 0.53125 0  0.65625 0.53125 0  0.6875 0.53125 0  0.71875 0.53125 0  0.75 0.53125 0  0.78125 0.531
[...]
<PointData  Scalars="theta_dt"> 
<DataArray  type="Float64"  Name="theta_dt"  format="ascii">-1.8876405871632288e-04  -4.5925748864041022e-04  -2.9371632304188959e-04  -2.1837448691045842e-04  -6.6654630019337050e-05  -9.2405958004275783e-05  -5.8758190024379345e-05  -2.9117613881678536e-04  -2.6885596870204607e-04  -4.3954322193282577e-04  -4.9170002206179713e-04  -4.3954322193282577e-04  -4.1127894594000536e-04  -2.9117613881678546e-04  -3.0247044596759873e-04  -9.2405958004275756e-05  -8.4627959535512665e-05  -5.6799976819864053e-05  -9.1893381464934153e-05  -1.0594692211201795e-04  -5.9057554155798222e-05  -5.9695655633605507e-04  -3.4346265078339592e-04  -5.7112482607452758e-04  -3.0511208011552599e-04  -5.7215408247404773e-04  -9.0445119261411315e-04  -5.6528266507458239e-04  -7.2459215112302005e-04  -9.4257824817719441e-04  -8.5794673587078537e-04  -6.7509228431819688e-04  -5.6301010169609541e-04  -3.4637091032784103e-04  -2.0079776949816691e-04  -4.6981163825203092e-04  -2.7199105710669109e-04  -2.4006156567667018e-04  -6.9373707939130483e-05  -9.0092299499087481e-05  -5.3820131357688402e-05  -2.7816902680818830e-04  -2.9239012148817516e-04  -4.6742338219517906e-04  -5.4087206483848828e-04  -4.6742338219517906e-04  -4.4728001222913387e-04  -2.7816902680818814e-04  -2.7705072479326608e-04  -9.0092299499087441e-05  -8.8080233085053412e-05  -6.2440862752278329e-05  -8.5096319152106679e-05  -1.0838167754773490e-04  -6.2822473871060206e-05  -5.9157398799741670e-04  -3.5733812168433547e-04  -5.5255178030413790e-04  -3.1432191608742093e-04  -5.8410423535678810e-04  -8.5544452087178517e-04  -5.5483988693357466e-04  -7.8236156666199486e-04  -9.4674335742615638e-04  -8.0191210041742969e-04  -6.1466692307465918e-04  -6.3058827857418581e-05  -3.3240491835924755e-04  -2.1837448691045853e-04  -4.7188766409236594e-04  -2.5094439576718911e-04  -2.6406871850736315e-04  -7.0967978061692942e-05  -8.6459695565791020e-05  -5.0135572601539087e-05  -2.7303025710564597e-04  -3.2142779747720395e-04  -5.0375509958070831e-04  -5.9069660397789183e-04  -5.0375509958070831e-04  -4.9170002206179713e-04  -2.7303025710564570e-04  -2.5808366454679009e-04  -8.6459695565790980e-05  -9.0104395958386443e-05  -6.8685208159044740e-05  -7.8511568059610155e-05  -1.0886059961966364e-04  -6.8321603035354967e-05  -5.7676217046596446e-04  -3.8000402483851989e-04  -5.2504676634146862e-04  -3.3435994163271484e-04  -9.1278479678373495e-04  -7.9918215403288471e-04  -5.6123126361947633e-04  -8.3753096984506251e-04  -9.3324006872701985e-04  -7.3926525358669842e-04  -2.9654216644020294e-05  -6.6654630019337104e-05  -3.1439393130699533e-04  -2.4006156567667029e-04  -4.6515718606807453e-04  -2.3226620665625197e-04  -2.8839443812960164e-04  -7.1281574712556107e-05  -8.1774974096976359e-05  -4.8019594915232022e-05  -2.7617537925873231e-04  -3.5357191116036380e-04  -5.4544821428642305e-04  -6.3698082830191294e-04  -5.4544821428642305e-04  -5.4087206483848828e-04  -2.7617537925873220e-04  -2.4719121339795036e-04  -8.1774974096976373e-05  -9.0502553515813718e-05  -7.5012413915622920e-05  -7.2667827612128257e-05  -1.0730793374343115e-04  -7.5106717942432673e-05  -5.5350659212397295e-04  -4.0954084169812652e-04  -4.9075465598330472e-04  -3.6362794706303492e-04  -9.4690006606151539e-04  -7.4006918187248982e-04  -5.8390432006182231e-04  -8.8528948002308350e-04  -9.0289099314863196e-04  -4.0168183903813495e-05  -3.2249981464204609e-05  -6.9373707939130496e-05  -2.9371632304188970e-04  -2.6406871850736326e-04  -4.5003022027558957e-04  -2.1746781180928353e-04  -3.1099167802957925e-04  -7.0264894030592278e-05  -7.6396655014171569e-05  -4.7659590573268469e-05  -2.8733252670902991e-04  -3.8614256635118759e-04  -5.8893505650140974e-04  -6.7578939678242256e-04  -5.8893505650140974e-04  -5.9069660397789183e-04  -2.8733252670902975e-04  -2.4533801346414001e-04  -7.6396655014171542e-05  -8.9211726283124784e-05  -8.0890035979769667e-05  -6.8037936672947388e-05  -1.0381826725731226e-04  -8.2617701431910763e-05  -5.2351545928126613e-04  -4.4343634628717609e-04  -4.5241600047623475e-04  -3.9974035213893346e-04  -9.6852972434618176e-04  -6.8280264669900884e-04  -6.2094128300170753e-04  -9.2140356657727837e-04  -2.0547975901690215e-04  -3.7059970816811929e-05  -3.5452772679049485e-05  -7.0967978061692942e-05  -2.7199105710669130e-04  -2.8839443812960175e-04  -4.2762854149448027e-04  -2.0775332010003079e-04  -3.2993909574991149e-04  -6.7979871504340679e-05  -7.0745836463968770e-05  -4.9098199662430906e-05  -3.0555798553423471e-04  -4.1639889259666640e-04  -6.3046469824927249e-04  -7.0377727309715919e-04  -6.3046469824927249e-04  -6.3698082830191294e-04  -3.0555798553423471e-04  -2.5274356378132072e-04  -7.0745836463968715e-05  -8.6310550568350681e-05  -8.5818326379153342e-05  -6.4998618043560113e-05  -9.8650384368724375e-05  -9.0228353129796120e-05  -4.8908398173097458e-04  -4.7879010841949500e-04  -4.1314338762951891e-04  -4.3971604628782388e-04  -9.7545011567997742e-04  -6.3198056349805722e-04  -6.6920558484531093e-04  -2.2678423875571767e-04  -1.9205936482673242e-04  -3.4301538450765307e-05  -3.8998197077072850e-05  -7.1281574712556107e-05  -2.5094439576718922e-04  -3.1099167802957936e-04  -3.9969905772790064e-04  -2.0391537854635489e-04  -3.4360355193583411e-04  -6.4595958210498551e-05  -6.5271525370523946e-05  -5.2228210421178334e-05  -3.2930828729103888e-04  -4.4176832950990232e-04  -6.6641567295029288e-04  -7.1847654077089910e-04  -6.6641567295029288e-04  -6.7578939678242256e-04  -3.2930828729103883e-04  -2.6885596870204585e-04  -6.5271525370523892e-05  -8.2014169698486347e-05  -8.9372499788314925e-05  -6.3797862758394416e-05  -9.2207282373791945e-05  -9.7298225054779719e-05  -4.5290798899857260e-04  -5.1255271340552508e-04  -3.7616423822610791e-04  -4.8022220436613717e-04  -9.6665479070556705e-04  -5.9171513681850990e-04  -2.1202839454912157e-04  -2.3196458012905542e-04  -1.7705533432956833e-04  -3.2116081869885507e-05  -4.2590668056717581e-05  -7.0264894030592291e-05  -2.3226620665625208e-04  -3.2993909574991159e-04  -3.6847383287491077e-04  -2.0626434448595382e-04  -3.5078014142887873e-04  -6.0377035497992737e-05  -6.0413262285178764e-05  -5.6799976819864053e-05  -3.5656337256361641e-04  -4.6006420308376909e-04  -6.9360112340133815e-04  -6.8711320797753943e-04  -6.9360112340133815e-04  -7.0377727309715919e-04  -3.5656337256361630e-04  -2.9239012148817495e-04  -6.0413262285178750e-05  -7.6657620266079094e-05  -9.1239156111669028e-05  -6.4532770579996457e-05  -8.5003880040117100e-05  -1.0322619754986516e-04  -4.1786197989883677e-04  -5.4177999557334603e-04  -3.4455126519373737e-04  -5.1785017121507156e-04  -9.4245170763170927e-04  -4.8726066276295745e-05  -2.2067778208334865e-04  -2.3362202608008783e-04  -1.6168579481228444e-04  -3.0681426283557654e-05  -4.5927873690154420e-05  -6.7979871504340747e-05  -2.1746781180928361e-04  -3.4360355193583422e-04  -3.3648793899094327e-04  -2.1459717166028686e-04  -6.8724789224095542e-05  -5.5660270539629482e-05  -5.6564147417544700e-05  -6.2440862752278356e-05  -3.8499103025171167e-04  -4.6967321878624204e-04  -7.0954070023619210e-04  -7.1279401707632071e-04  -7.0954070023619210e-04  -7.1847654077089910e-04  -3.8499103025171129e-04  -3.2142779747720374e-04  -5.6564147417544679e-05  -7.0668986109395876e-05  -1.0495589910631140e-04  -6.7139815562318114e-05  -7.7624997622673640e-05  -1.0750131944911618e-04  -3.8675985044517866e-04  -5.6388111627451651e-04  -3.2096307711083075e-04  -5.4940060874679301e-04  -4.2463656180685508e-05  -5.0744060525299447e-05  -2.2574915573685884e-04  -2.3151553020959263e-04  -1.4721381403805922e-04  -3.0114631390445894e-05  -4.8726066276295732e-05  -6.4595958210498592e-05  -2.0775332010003087e-04  -3.5078014142887883e-04  -3.0636997476601397e-04  -2.2820903788683673e-04  -7.1293373515485953e-05  -5.0828601780024719e-05  -5.4037373746733186e-05  -6.8685208159044754e-05  -4.1213925209042271e-04  -6.8711320797753943e-04  -7.1267605216987289e-04  -7.2907608481430591e-04  -7.1267605216987289e-04  -4.4917078533292937e-04  -4.1213925209042249e-04  -3.5357191116036358e-04  -5.4037373746733179e-05  -6.4534464499145977e-05  -1.0887861864866136e-04  -7.1398483935432861e-05  -7.0677031201140671e-05  -1.0974661882189750e-04  -3.6211819008382995e-04  -5.7683961082611831e-04  -3.0741679302442664e-04  -2.9406363411771175e-05  -4.5458044796239185e-05  -5.1803913630858412e-05  -2.2674670676068451e-04  -2.2571884905264983e-04  -1.3484191405329721e-04  -3.0461531383590177e-05  -5.0744060525299434e-05  -6.0377035497992730e-05  -2.0391537854635503e-04  -4.5496161361438238e-04  -2.8062253583912585e-04  -2.4594718831994064e-04  -7.2921899441685440e-05  -4.6279095445251883e-05  -5.3039111567075916e-05  -7.5012413915622947e-05  -4.3564065964955340e-04  -7.1279401707632071e-04  -7.0251123780289094e-04  -7.3428551896195814e-04  -7.0251123780289094e-04  -4.6595851267823438e-04  -4.3564065964955318e-04  -3.8614256635118737e-04  -5.3039111567075963e-05  -5.8758190024379325e-05  -1.1136568924912335e-04  -7.6948119745081427e-05  -6.4737308988561083e-05  -5.5860659628307588e-04  -3.4594202991524320e-04  -5.7938857692295452e-04  -2.8998474310756015e-05  -3.0624230495737612e-05  -4.8050197890560908e-05  -2.1861357149059884e-04  -2.2351264526033039e-04  -2.1661765856859417e-04  -1.2561055503228230e-04  -3.1692139984982557e-05  -5.1803913630858399e-05  -5.5660270539629489e-05  -2.0626434448595401e-04  -4.7196577277018522e-04  -2.6141094724735700e-04  -2.6630292137893376e-04  -7.3442944968998212e-05  -4.2389784214677507e-05  -5.3650085920387595e-05  -8.0890035979769680e-05  -4.5341198173586152e-04  -7.2907608481430591e-04  -6.7966549064178987e-04  -7.2766469883035105e-04  -6.7966549064178987e-04  -4.7660221602697557e-04  -4.5341198173586141e-04  -4.1639889259666618e-04  -5.3650085920387575e-05  -5.3820131357688381e-05  -1.1216142543706733e-04  -8.3316703974980211e-05  -6.0305353646459020e-05  -5.7948447956913593e-04  -3.3955125218357887e-04  -3.1016585941834470e-05  -3.0181424560171475e-05  -3.1263855812676499e-05  -5.0010335274685995e-05  -2.2678423875571767e-04  -2.1624398804013199e-04  -2.0488047410385771e-04  -1.2030914691383195e-04  -3.3702367643488607e-05  -6.8724789224095569e-05  -5.0828601780024746e-05  -2.1459717166028700e-04  -4.8274669755091605e-04  -2.5037806774425497e-04  -2.8753440187529150e-04  -7.2780733178055192e-05  -3.9487753939770773e-05  -5.5817483756289941e-05  -8.5818326379153369e-05  -4.6383179634815777e-04  -7.3428551896195814e-04  -6.4583298936967824e-04  -7.0944544483705061e-04  -6.4583298936967824e-04  -4.8000766013731153e-04  -4.6383179634815739e-04  -4.4176832950990210e-04  -5.5817483756289941e-05  -5.0135572601539087e-05  -1.1115010136169502e-04  -8.9959278402275135e-05  -5.7760159165587593e-05  -5.9272141102958346e-04  -9.3776794528387301e-05  -3.1725085369730123e-05  -3.0875020806675622e-05  -4.9542540724430869e-05  -5.1159617700496604e-05  -2.3196458012905542e-04  -2.0547975901690215e-04  -1.9140553784450612e-04  -1.1940718563441309e-04  -3.6321973215413416e-05  -7.1293373515486007e-05  -4.6279095445251910e-05  -2.2820903788683692e-04  -4.8619604554527230e-04  -2.4850097586791780e-04  -3.0781032290978392e-04  -7.0958450654633315e-05  -3.7821168681375368e-05  -5.9357978330915650e-05  -8.9372499788314952e-05  -4.6588139818086298e-04  -7.2766469883035105e-04  -6.0365203033106154e-04  -6.8083995549219928e-04  -6.0365203033106154e-04  -4.7567958298272499e-04  -4.6588139818086271e-04  -4.6006420308376887e-04  -5.9357978330915637e-05  -4.8019594915232022e-05  -1.0836712737471306e-04  -9.6302892290937902e-05  -5.7327129521567742e-05  -8.0892335973291381e-05  -8.7651998808931537e-05  -3.1951769177503577e-05  -3.1011452805793429e-05  -5.1394189791631341e-05  -5.1385684233720535e-05  -2.3362202608008783e-04  -1.9205936482673242e-04  -1.7724787657435431e-04  -1.2301150242561366e-04  -3.9328148630547906e-05  -7.2921899441685467e-05  -4.2389784214677527e-05  -2.4594718831994053e-04  -4.8181216967801537e-04  -2.5600200049379545e-04  -3.2536258422175273e-04  -6.8097341010614842e-05  -3.7537622246477926e-05  -6.3971734029586938e-05  -9.1239156111669055e-05  -4.5923658681794376e-04  -7.0944544483705061e-04  -5.5649362448642451e-04  -6.4394940741139986e-04  -5.5649362448642451e-04  -4.6376952721704031e-04  -4.5923658681794349e-04  -4.6967321878624182e-04  -6.3971734029586938e-05  -4.7659590573268456e-05  -1.0399766566344452e-04  -1.0179437001205487e-04  -1.7896430760093529e-05  -7.4632888996241422e-05  -8.0804463597862567e-05  -3.1663670187195350e-05  -3.0569140116793146e-05  -5.2568166648169143e-05  -5.0652776288005458e-05  -2.3151553020959263e-04  -1.7705533432956833e-04  -1.6353244022475788e-04  -1.3085348703378811e-04  -4.2463656180685502e-05  -7.3442944968998239e-05  -3.9487753939770800e-05  -2.6630292137893376e-04  -4.6974856633084607e-04  -2.7232213079013249e-04  -3.3863527388228539e-04  -6.4407563093702453e-05  -3.8670698798327675e-05  -6.9266332232243422e-05  -4.4917078533292991e-04  -4.4430215960168667e-04  -6.8083995549219928e-04  -5.0818640581353175e-04  -6.0159701996662432e-04  -5.0818640581353175e-04  -4.4506991561784194e-04  -4.4430215960168646e-04  -8.7256334329004768e-05  -6.9266332232243395e-05  -4.9098199662430906e-05  -9.8362668988381989e-05  -2.7434100214182264e-05  -1.9462984546746401e-05  -6.9077844778953269e-05  -7.3790117483169646e-05  -3.0870875854272627e-05  -2.9575028124756258e-05  -5.2943779575434769e-05  -4.9005542111791061e-05  -2.2571884905264983e-04  -1.6168579481228444e-04  -1.5136046150830590e-04  -1.4230767185742410e-04  -4.5458044796239178e-05  -7.2780733178055232e-05  -3.7821168681375382e-05  -2.8753440187529166e-04  -4.5080787440488342e-04  -2.9615969208363557e-04  -3.4641741665127182e-04  -6.0171494180332794e-05  -4.1135956264370055e-05  -7.4788715442416820e-05  -4.6595851267823465e-04  -4.2218561317274917e-04  -6.4394940741139986e-04  -4.6270025841762402e-04  -5.5709879423221820e-04  -4.6270025841762402e-04  -4.2095430226558530e-04  -4.2218561317274890e-04  -9.0517533849762398e-05  -7.4788715442416779e-05  -5.2228210421178334e-05  -3.0870875854272661e-05  -2.8998474310756021e-05  -2.1395881035079908e-05  -6.4676682694580638e-05  -6.7185398974756053e-05  -2.9626133898788786e-05  -2.8102837480342805e-05  -5.2466402271096834e-05  -4.6566136126543727e-05  -2.1661765856859417e-04  -1.4721381403805922e-04  -1.4171682067968454e-04  -1.5644044777036147e-04  -4.8050197890560894e-05  -7.0958450654633369e-05  -3.7537622246477953e-05  -3.0781032290978409e-04  -4.2638135620221153e-04  -3.2557172945331457e-04  -3.4794818228148434e-04  -5.5720799376423164e-05  -4.4736768566967962e-05  -8.0062554255065150e-05  -4.7660221602697557e-04  -3.9461162059408931e-04  -6.0159701996662432e-04  -4.2381476823810562e-04  -5.1399050317450486e-04  -4.2381476823810562e-04  -3.9326824571998635e-04  -3.9461162059408909e-04  -9.2585189557174843e-05  -8.0062554255065150e-05  -5.6230354366134920e-06  -2.9626133898788786e-05  -3.0181424560171482e-05  -2.3535557932165164e-05  -6.1787514442087884e-05  -6.1539114745362173e-05  -2.8020875117741794e-05  -2.6267371258983969e-05  -5.1152749553535695e-05  -4.3524785943337008e-05  -2.0488047410385771e-04  -1.3484191405329721e-04  -1.3538619699749203e-04  -1.7208514178016177e-04  -5.0010335274685989e-05  -6.8097341010614842e-05  -3.8670698798327675e-05  -3.2536258422175284e-04  -3.9833836371046147e-04  -3.5813025353153302e-04  -3.4298543844934386e-04  -5.1409125284940525e-05  -4.9179640247556941e-05  -8.4627959535512679e-05  -4.8000766013731164e-04  -3.6378383567836544e-04  -5.5709879423221820e-04  -3.9480015277908929e-04  -4.7573337537466478e-04  -3.9480015277908929e-04  -3.6417943944033976e-04  -3.6378383567836538e-04  -9.3246734295909282e-05  -1.0087503723306771e-05  -5.9815040064271754e-06  -2.8020875117741818e-05  -3.0875020806675615e-05  -2.5703627617385513e-05  -6.0646079643060608e-05  -5.7326109716189109e-05  -2.6177949344583824e-05  -2.4215315948868360e-05  -4.9090223896401357e-05  -4.0124549686877908e-05  -1.9140553784450612e-04  -1.2561055503228230e-04  -1.3288513318296131e-04  -1.8793743558368045e-04  -5.1159617700496604e-05  -6.4407563093702480e-05  -4.1135956264370076e-05  -3.3863527388228550e-04  -3.6887453686496708e-04  -3.9112081820307849e-04  -3.3183151209898473e-04  -4.7582662609157802e-05  -5.4097808369361921e-05  -8.8080233085053439e-05  -4.7567958298272520e-04  -3.3220506365560159e-04  -5.1399050317450486e-04  -3.7813756630639502e-04  -4.4542293791574258e-04  -3.7813756630639502e-04  -3.3599924333299527e-04  -3.3220506365560137e-04  -7.4753066850455837e-06  -1.0319323619850523e-05  -6.5050915237796545e-06  -2.6177949344583848e-05  -3.1011452805793442e-05  -2.7717643710541683e-05  -6.1344681075023514e-05  -5.4906654572706272e-05  -2.4241649362140835e-05  -2.2113271089226479e-05  -4.6430325266277299e-05  -3.6641481219266634e-05  -1.7724787657435431e-04  -1.2030914691383195e-04  -1.3441587919118785e-04  -2.0266333441035098e-04  -5.1385684233720535e-05  -6.0171494180332794e-05  -4.4736768566967975e-05  -3.4641741665127215e-04  -3.4033103423385927e-04  -4.2176721698986306e-04  -3.1531354817438643e-04  -4.4551024734249385e-05  -5.9081238917323600e-05  -9.0104395958386443e-05  -4.6376952721704037e-04  -3.0247044596759878e-04  -4.7573337537466478e-04  -3.7530265764108524e-04  -4.2552547630294891e-04  -3.7530265764108524e-04  -3.1099028711016776e-04  -1.0235502255146132e-05  -6.9189077605002739e-06  -1.0364923134092638e-05  -7.1511213519595012e-06  -2.4241649362140838e-05  -3.0569140116793166e-05  -2.9406363411771188e-05  -6.3822931141639162e-05  -5.4495017738123185e-05  -2.2365831128029575e-05  -2.0133982590629167e-05  -4.3376614676234011e-05  -3.3361818881829981e-05  -1.6353244022475788e-04  -1.1940718563441309e-04  -1.3984611626671124e-04  -2.1501076080451663e-04  -5.0652776288005444e-05  -5.5720799376423191e-05  -4.9179640247556968e-05  -3.4794818228148455e-04  -3.1499965594861449e-04  -4.4746372337769276e-04  -2.9471963600392632e-04  -4.2560888553548230e-05  -6.3710568588385723e-05  -9.0502553515813745e-05  -4.4506991561784216e-04  -2.7705072479326613e-04  -4.4542293791574258e-04  -3.8663120259866882e-04  -4.1766450971592007e-04  -3.8663120259866882e-04  -5.7418419272321852e-06  -1.0449283508356324e-05  -6.4780828534953163e-06  -1.0217089459500501e-05  -7.8662631645333243e-06  -2.2365831128029575e-05  -2.9575028124756275e-05  -3.0624230495737626e-05  -6.7871210036300270e-05  -5.6139954819813207e-05  -2.0701106868476112e-05  -1.8441915711349712e-05  -4.0168183903813523e-05  -3.0558080053291512e-05  -1.5136046150830590e-04  -1.2301150242561366e-04  -1.4871653432580148e-04  -2.2391545005886974e-04  -4.9005542111791061e-05  -5.1409125284940525e-05  -5.4097808369361948e-05  -3.4298543844934418e-04  -2.9493005842732851e-04  -4.6599547218117147e-04  -2.7169559647997334e-04  -4.1774637808374180e-05  -6.7592186141281167e-05  -8.9211726283124797e-05  -4.2095430226558563e-04  -2.5808366454679020e-04  -4.2552547630294891e-04  -4.1127894594000536e-04  -4.2247571971143721e-04  -1.0319323619850523e-05  -5.4995068193261296e-06  -9.9931456422916778e-06  -6.1887007989808670e-06  -9.8848285219472270e-06  -8.5908946668816191e-06  -2.0701106868476115e-05  -2.8102837480342819e-05  -3.1263855812676513e-05  -7.3146679162539041e-05  -5.9718877545895705e-05  -1.9382175640299727e-05  -1.7179371003630174e-05  -3.7059970816811915e-05  -2.8466055403942883e-05  -1.4171682067968454e-04  -1.3085348703378811e-04  -1.6027591988821265e-04  -2.2859220400151502e-04  -4.6566136126543713e-05  -4.7582662609157836e-05  -5.9081238917323627e-05  -3.3183151209898479e-04  -2.8175525529869659e-04  -4.7572836984948862e-04  -2.4811067472326371e-04  -4.2255853114696211e-05  -7.0391522376167222e-05  -8.6310550568350708e-05  -3.9326824571998635e-04  -2.4719121339795036e-04  -4.1766450971592007e-04  -4.4728001222913387e-04  -6.1443461548863100e-06  -1.0364923134092638e-05  -5.4582768519115598e-06  -1.0366638776401830e-05  -6.0743