<?xml version="1.0"?>
<VTKFile type="UnstructuredGrid"  version="0.1"  >
<UnstructuredGrid>
<Piece  NumberOfPoints="1089" NumberOfCells="2048">
<Points>
<DataArray  type="Float64"  NumberOfComponents="3"  format="ascii">0 0 0  0.03125 0 0  0.0625 0 0  0.09375 0 0  0.125 0 0  0.15625 0 0  0.1875 0 0  0.21875 0 0  0.25 0 0  0.28125 0 0  0.3125 0 0  0.34375 0 0  0.375 0 0  0.40625 0 0  0.4375 0 0  0.46875 0 0  0.5 0 0  0.53125 0 0  0.5625 0 0  0.59375 0 0  0.625 0 0  0.65625 0 0  0.6875 0 0  0.71875 0 0  0.75 0 0  0.78125 0 0  0.8125 0 0  0.84375 0 0  0.875 0 0  0.90625 0 0  0.9375 0 0  0.96875 0 0  1 0 0  0 0.03125 0  0.03125 0.03125 0  0.0625 0.03125 0  0.09375 0.03125 0  0.125 0.03125 0  0.15625 0.03125 0  0.1875 0.03125 0  0.21875 0.03125 0  0.25 0.03125 0  0.28125 0.03125 0  0.3125 0.03125 0  0.34375 0.03125 0  0.375 0.03125 0  0.40625 0.03125 0  0.4375 0.03125 0  0.46875 0.03125 0  0.5 0.03125 0  0.53125 0.03125 0  0.5625 0.03125 0  0.59375 0.03125 0  0.625 0.03125 0  0.65625 0.03125 0  0.6875 0.03125 0  0.71875 0.03125 0  0.75 0.03125 0  0.78125 0.03125 0  0.8125 0.03125 0  0.84375 0.03125 0  0.875 0.03125 0  0.90625 0.03125 0  0.9375 0.03125 0  0.96875 0.03125 0  1 0.03125 0  0 0.0625 0  0.03125 0.0625 0  0.0625 0.0625 0  0.09375 0.0625 0  0.125 0.0625 0  0.15625 0.0625 0  0.1875 0.0625 0  0.21875 0.0625 0  0.25 0.0625 0  0.28125 0.0625 0  0.3125 0.0625 0  0.34375 0.0625 0  0.375 0.0625 0  0.40625 0.0625 0  0.4375 0.0625 0  0.46875 0.0625 0  0.5 0.0625 0  0.53125 0.0625 0  0.5625 0.0625 0  0.59375 0.0625 0  0.625 0.0625 0  0.65625 0.0625 0  0.6875 0.0625 0  0.71875 0.0625 0  0.75 0.0625 0  0.78125 0.0625 0  0.8125 0.0625 0  0.84375 0.0625 0  0.875 0.0625 0  0.90625 0.0625 0  0.9375 0.0625 0  0.96875 0.0625 0  1 0.0625 0  0 0.09375 0  0.03125 0.09375 0  0.0625 0.09375 0  0.09375 0.09375 0  0.125 0.09375 0  0.15625 0.09375 0  0.1875 0.09375 0  0.21875 0.09375 0  0.25 0.09375 0  0.28125 0.09375 0  0.3125 0.09375 0  0.34375 0.09375 0  0.375 0.09375 0  0.40625 0.09375 0  0.4375 0.09375 0  0.46875 0.09375 0  0.5 0.09375 0  0.53125 0.09375 0  0.5625 0.09375 0  0.59375 0.09375 0  0.625 0.09375 0  0.65625 0.09375 0  0.6875 0.09375 0  0.71875 0.09375 0  0.75 0.09375 0  0.78125 0.09375 0  0.8125 0.09375 0  0.84375 0.09375 0  0.875 0.09375 0  0.90625 0.09375 0  0.9375 0.09375 0  0.96875 0.09375 0  1 0.09375 0  0 0.125 0  0.03125 0.125 0  0.0625 0.125 0  0.09375 0.125 0  0.125 0.125 0  0.15625 0.125 0  0.1875 0.125 0  0.21875 0.125 0  0.25 0.125 0  0.28125 0.125 0  0.3125 0.125 0  0.34375 0.125 0  0.375 0.125 0  0.40625 0.125 0  0.4375 0.125 0  0.46875 0.125 0  0.5 0.125 0  0.53125 0.125 0  0.5625 0.125 0  0.59375 0.125 0  0.625 0.125 0  0.65625 0.125 0  0.6875 0.125 0  0.71875 0.125 0  0.75 0.125 0  0.78125 0.125 0  0.8125 0.125 0  0.84375 0.125 0  0.875 0.125 0  0.90625 0.125 0  0.9375 0.125 0  0.96875 0.125 0  1 0.125 0  0 0.15625 0  0.03125 0.15625 0  0.0625 0.15625 0  0.09375 0.15625 0  0.125 0.15625 0  0.15625 0.15625 0  0.1875 0.15625 0  0.21875 0.15625 0  0.25 0.15625 0  0.28125 0.15625 0  0.3125 0.15625 0  0.34375 0.15625 0  0.375 0.15625 0  0.40625 0.15625 0  0.4375 0.15625 0  0.46875 0.15625 0  0.5 0.15625 0  0.53125 0.15625 0  0.5625 0.15625 0  0.59375 0.15625 0  0.625 0.15625 0  0.65625 0.15625 0  0.6875 0.15625 0  0.71875 0.15625 0  0.75 0.15625 0  0.78125 0.15625 0  0.8125 0.15625 0  0.84375 0.15625 0  0.875 0.15625 0  0.90625 0.15625 0  0.9375 0.15625 0  0.96875 0.15625 0  1 0.15625 0  0 0.1875 0  0.03125 0.1875 0  0.0625 0.1875 0  0.09375 0.1875 0  0.125 0.1875 0  0.15625 0.1875 0  0.1875 0.1875 0  0.21875 0.1875 0  0.25 0.1875 0  0.28125 0.1875 0  0.3125 0.1875 0  0.34375 0.1875 0  0.375 0.1875 0  0.40625 0.1875 0  0.4375 0.1875 0  0.46875 0.1875 0  0.5 0.1875 0  0.53125 0.1875 0  0.5625 0.1875 0  0.59375 0.1875 0  0.625 0.1875 0  0.65625 0.1875 0  0.6875 0.1875 0  0.71875 0.1875 0  0.75 0.1875 0  0.78125 0.1875 0  0.8125 0.1875 0  0.84375 0.1875 0  0.875 0.1875 0  0.90625 0.1875 0  0.9375 0.1875 0  0.96875 0.1875 0  1 0.1875 0  0 0.21875 0  0.03125 0.21875 0  0.0625 0.21875 0  0.09375 0.21875 0  0.125 0.21875 0  0.15625 0.21875 0  0.1875 0.21875 0  0.21875 0.21875 0  0.25 0.21875 0  0.28125 0.21875 0  0.3125 0.21875 0  0.34375 0.21875 0  0.375 0.21875 0  0.40625 0.21875 0  0.4375 0.21875 0  0.46875 0.21875 0  0.5 0.21875 0  0.53125 0.21875 0  0.5625 0.21875 0  0.59375 0.21875 0  0.625 0.21875 0  0.65625 0.21875 0  0.6875 0.21875 0  0.71875 0.21875 0  0.75 0.21875 0  0.78125 0.21875 0  0.8125 0.21875 0  0.84375 0.21875 0  0.875 0.21875 0  0.90625 0.21875 0  0.9375 0.21875 0  0.96875 0.21875 0  1 0.21875 0  0 0.25 0  0.03125 0.25 0  0.0625 0.25 0  0.09375 0.25 0  0.125 0.25 0  0.15625 0.25 0  0.1875 0.25 0  0.21875 0.25 0  0.25 0.25 0  0.28125 0.25 0  0.3125 0.25 0  0.34375 0.25 0  0.375 0.25 0  0.40625 0.25 0  0.4375 0.25 0  0.46875 0.25 0  0.5 0.25 0  0.53125 0.25 0  0.5625 0.25 0  0.59375 0.25 0  0.625 0.25 0  0.65625 0.25 0  0.6875 0.25 0  0.71875 0.25 0  0.75 0.25 0  0.78125 0.25 0  0.8125 0.25 0  0.84375 0.25 0  0.875 0.25 0  0.90625 0.25 0  0.9375 0.25 0  0.96875 0.25 0  1 0.25 0  0 0.28125 0  0.03125 0.28125 0  0.0625 0.28125 0  0.09375 0.28125 0  0.125 0.28125 0  0.15625 0.28125 0  0.1875 0.28125 0  0.21875 0.28125 0  0.25 0.28125 0  0.28125 0.28125 0  0.3125 0.28125 0  0.34375 0.28125 0  0.375 0.28125 0  0.40625 0.28125 0  0.4375 0.28125 0  0.46875 0.28125 0  0.5 0.28125 0  0.53125 0.28125 0  0.5625 0.28125 0  0.59375 0.28125 0  0.625 0.28125 0  0.65625 0.28125 0  0.6875 0.28125 0  0.71875 0.28125 0  0.75 0.28125 0  0.78125 0.28125 0  0.8125 0.28125 0  0.84375 0.28125 0  0.875 0.28125 0  0.90625 0.28125 0  0.9375 0.28125 0  0.96875 0.28125 0  1 0.28125 0  0 0.3125 0  0.03125 0.3125 0  0.0625 0.3125 0  0.09375 0.3125 0  0.125 0.3125 0  0.15625 0.3125 0  0.1875 0.3125 0  0.21875 0.3125 0  0.25 0.3125 0  0.28125 0.3125 0  0.3125 0.3125 0  0.34375 0.3125 0  0.375 0.3125 0  0.40625 0.3125 0  0.4375 0.3125 0  0.46875 0.3125 0  0.5 0.3125 0  0.53125 0.3125 0  0.5625 0.3125 0  0.59375 0.3125 0  0.625 0.3125 0  0.65625 0.3125 0  0.6875 0.3125 0  0.71875 0.3125 0  0.75 0.3125 0  0.78125 0.3125 0  0.8125 0.3125 0  0.84375 0.3125 0  0.875 0.3125 0  0.90625 0.3125 0  0.9375 0.3125 0  0.96875 0.3125 0  1 0.3125 0  0 0.34375 0  0.03125 0.34375 0  0.0625 0.34375 0  0.09375 0.34375 0  0.125 0.34375 0  0.15625 0.34375 0  0.1875 0.34375 0  0.21875 0.34375 0  0.25 0.34375 0  0.28125 0.34375 0  0.3125 0.34375 0  0.34375 0.34375 0  0.375 0.34375 0  0.40625 0.34375 0  0.4375 0.34375 0  0.46875 0.34375 0  0.5 0.34375 0  0.53125 0.34375 0  0.5625 0.34375 0  0.59375 0.34375 0  0.625 0.34375 0  0.65625 0.34375 0  0.6875 0.34375 0  0.71875 0.34375 0  0.75 0.34375 0  0.78125 0.34375 0  0.8125 0.34375 0  0.84375 0.34375 0  0.875 0.34375 0  0.90625 0.34375 0  0.9375 0.34375 0  0.96875 0.34375 0  1 0.34375 0  0 0.375 0  0.03125 0.375 0  0.0625 0.375 0  0.09375 0.375 0  0.125 0.375 0  0.15625 0.375 0  0.1875 0.375 0  0.21875 0.375 0  0.25 0.375 0  0.28125 0.375 0  0.3125 0.375 0  0.34375 0.375 0  0.375 0.375 0  0.40625 0.375 0  0.4375 0.375 0  0.46875 0.375 0  0.5 0.375 0  0.53125 0.375 0  0.5625 0.375 0  0.59375 0.375 0  0.625 0.375 0  0.65625 0.375 0  0.6875 0.375 0  0.71875 0.375 0  0.75 0.375 0  0.78125 0.375 0  0.8125 0.375 0  0.84375 0.375 0  0.875 0.375 0  0.90625 0.375 0  0.9375 0.375 0  0.96875 0.375 0  1 0.375 0  0 0.40625 0  0.03125 0.40625 0  0.0625 0.40625 0  0.09375 0.40625 0  0.125 0.40625 0  0.15625 0.40625 0  0.1875 0.40625 0  0.21875 0.40625 0  0.25 0.40625 0  0.28125 0.40625 0  0.3125 0.40625 0  0.34375 0.40625 0  0.375 0.40625 0  0.40625 0.40625 0  0.4375 0.40625 0  0.46875 0.40625 0  0.5 0.40625 0  0.53125 0.40625 0  0.5625 0.40625 0  0.59375 0.40625 0  0.625 0.40625 0  0.65625 0.40625 0  0.6875 0.40625 0  0.71875 0.40625 0  0.75 0.40625 0  0.78125 0.40625 0  0.8125 0.40625 0  0.84375 0.40625 0  0.875 0.40625 0  0.90625 0.40625 0  0.9375 0.40625 0  0.96875 0.40625 0  1 0.40625 0  0 0.4375 0  0.03125 0.4375 0  0.0625 0.4375 0  0.09375 0.4375 0  0.125 0.4375 0  0.15625 0.4375 0  0.1875 0.4375 0  0.21875 0.4375 0  0.25 0.4375 0  0.28125 0.4375 0  0.3125 0.4375 0  0.34375 0.4375 0  0.375 0.4375 0  0.40625 0.4375 0  0.4375 0.4375 0  0.46875 0.4375 0  0.5 0.4375 0  0.53125 0.4375 0  0.5625 0.4375 0  0.59375 0.4375 0  0.625 0.4375 0  0.65625 0.4375 0  0.6875 0.4375 0  0.71875 0.4375 0  0.75 0.4375 0  0.78125 0.4375 0  0.8125 0.4375 0  0.84375 0.4375 0  0.875 0.4375 0  0.90625 0.4375 0  0.9375 0.4375 0  0.96875 0.4375 0  1 0.4375 0  0 0.46875 0  0.03125 0.46875 0  0.0625 0.46875 0  0.09375 0.46875 0  0.125 0.46875 0  0.15625 0.46875 0  0.1875 0.46875 0  0.21875 0.46875 0  0.25 0.46875 0  0.28125 0.46875 0  0.3125 0.46875 0  0.34375 0.46875 0  0.375 0.46875 0  0.40625 0.46875 0  0.4375 0.46875 0  0.46875 0.46875 0  0.5 0.46875 0  0.53125 0.46875 0  0.5625 0.46875 0  0.59375 0.46875 0  0.625 0.46875 0  0.65625 0.46875 0  0.6875 0.46875 0  0.71875 0.46875 0  0.75 0.46875 0  0.78125 0.46875 0  0.8125 0.46875 0  0.84375 0.46875 0  0.875 0.46875 0  0.90625 0.46875 0  0.9375 0.46875 0  0.96875 0.46875 0  1 0.46875 0  0 0.5 0  0.03125 0.5 0  0.0625 0.5 0  0.09375 0.5 0  0.125 0.5 0  0.15625 0.5 0  0.1875 0.5 0  0.21875 0.5 0  0.25 0.5 0  0.28125 0.5 0  0.3125 0.5 0  0.34375 0.5 0  0.375 0.5 0  0.40625 0.5 0  0.4375 0.5 0  0.46875 0.5 0  0.5 0.5 0  0.53125 0.5 0  0.5625 0.5 0  0.59375 0.5 0  0.625 0.5 0  0.65625 0.5 0  0.6875 0.5 0  0.71875 0.5 0  0.75 0.5 0  0.78125 0.5 0  0.8125 0.5 0  0.84375 0.5 0  0.875 0.5 0  0.90625 0.5 0  0.9375 0.5 0  0.96875 0.5 0  1 0.5 0  0 0.53125 0  0.03125 0.53125 0  0.0625 0.53125 0  0.09375 0.53125 0  0.125 0.53125 0  0.15625 0.53125 0  0.1875 0.53125 0  0.21875 0.53125 0  0.25 0.53125 0  0.28125 0.53125 0  0.3125 0.53125 0  0.34375 0.53125 0  0.375 0.53125 0  0.40625 0.53125 0  0.4375 0.53125 0  0.46875 0.53125 0  0.5 0.53125 0  0.53125 0.53125 0  0.5625 0.53125 0  0.59375 0.53125 0  0.625 0.53125 0  0.65625 0.53125 0  0.6875 0.53125 0  0.71875 0.53125 0  0.75 0.53125 0  0.78125 0.531
[...]
<PointData  Scalars="phi"> 
<DataArray  type="Float64"  Name="phi"  format="ascii">0.0000000000000000e+00  0.0000000000000000e+00  0.0000000000000000e+00  0.0000000000000000e+00  0.0000000000000000e+00  0.0000000000000000e+00  0.0000000000000000e+00  0.0000000000000000e+00  0.0000000000000000e+00  0.0000000000000000e+00  0.0000000000000000e+00  0.0000000000000000e+00  0.0000000000000000e+00  0.0000000000000000e+00  0.0000000000000000e+00  0.0000000000000000e+00  0.0000000000000000e+00  0.0000000000000000e+00  0.0000000000000000e+00  0.0000000000000000e+00  0.0000000000000000e+00  0.0000000000000000e+00  0.0000000000000000e+00  0.0000000000000000e+00  0.0000000000000000e+00  0.0000000000000000e+00  0.0000000000000000e+00  0.0000000000000000e+00  0.0000000000000000e+00  0.0000000000000000e+00  0.0000000000000000e+00  0.0000000000000000e+00  0.0000000000000000e+00  0.0000000000000000e+00  -3.5209293410008347e-05  -6.9447317436357054e-05  -1.0194863701316796e-04  -1.3197843827946799e-04  -1.5887120934273788e-04  -1.8205765738414328e-04  -2.0108465199814100e-04  -2.1562963231144477e-04  -2.2550971190188321e-04  -2.3068545804343877e-04  -2.3125935896709603e-04  -2.2746912851972484e-04  -2.1967616416630989e-04  -2.0834964343424277e-04  -1.9404690078770955e-04  -1.7739086206743291e-04  -1.5904542032239857e-04  -1.3968971029331884e-04  -1.1999227583003175e-04  -1.0058612356452697e-04  -8.2045617199987886e-05  -6.4866091311790606e-05  -4.9446954527823713e-05  -3.6078913628242575e-05  -2.4935787919548519e-05  -1.6071203638482703e-05  -9.4202684166920658e-06  -4.8061340638236235e-06  -1.9511712451142595e-06  -4.9231357712150259e-07  -5.6507206025695795e-18  0.0000000000000000e+00  0.0000000000000000e+00  -6.9447317436356892e-05  -1.3705379586867036e-04  -2.0124665072192879e-04  -2.6055114978052325e-04  -3.1364060564895385e-04  -3.5938298140923914e-04  -3.9687841349848809e-04  -4.2548713411998996e-04  -4.4484730391361086e-04  -4.5488241326867621e-04  -4.5579817904400362e-04  -4.4806919594350274e-04  -4.3241595526175426e-04  -4.0977318887357194e-04  -3.8125081223493792e-04  -3.4808901089279588e-04  -3.1160922830762331e-04  -2.7316295955361102e-04  -2.3408032958298271e-04  -1.9562043316947032e-04  -1.5892533637442227e-04  -1.2497948939421566e-04  -9.4576083791198938e-05  -6.8291611850245301e-05  -4.6469562923156323e-05  -2.9213833852398405e-05  -1.6392052183454743e-05  -7.6486273627632900e-06  -2.4269729763937060e-06  -2.2144238321499177e-17  4.9231357709912271e-07  0.0000000000000000e+00  0.0000000000000000e+00  -1.0194863701316732e-04  -2.0124665072192798e-04  -2.9553111694977389e-04  -3.8260298383820812e-04  -4.6049086446320119e-04  -5.2751607169640186e-04  -5.8234643951353882e-04  -6.2403693028036859e-04  -6.5205571028847118e-04  -6.6629492535120918e-04  -6.6706595322047792e-04  -6.5507946658201102e-04  -6.3141119333223826e-04  -5.9745478657305027e-04  -5.5486369256539723e-04  -5.0548431065667568e-04  -4.5128305822629306e-04  -3.9427017308311940e-04  -3.3642319673739100e-04  -2.7961308015242989e-04  -2.2553573900643576e-04  -1.7565166262215032e-04  -1.3113585823409631e-04  -9.2840002723384519e-05  -6.1268193330140915e-05  -3.6567155941716141e-05  -1.8531205276626680e-05  -6.6216779587227660e-06  -4.7967283607910665e-17  2.4269729763285107e-06  1.9511712450813006e-06  0.0000000000000000e+00  0.0000000000000000e+00  -1.3197843827946645e-04  -2.6055114978052076e-04  -3.8260298383820601e-04  -4.9524271208299371e-04  -5.9588330723181189e-04  -6.8232552484587066e-04  -7.5282744500931452e-04  -8.0615715108274771e-04  -8.4162659144949642e-04  -8.5910546775163547e-04  -8.5901477262694133e-04  -8.4230037124939075e-04  -8.1038777025622076e-04  -7.6511992160755685e-04  -7.0868054207215859e-04  -6.4350596727582329e-04  -5.7218898179973998e-04  -4.9737835730731897e-04  -4.2167797787865497e-04  -3.4754942998900773e-04  -2.7722178401416947e-04  -2.1261200068221212e-04  -1.5525897095122393e-04  -1.0627365789766220e-04  -6.6307175322709815e-05  -3.5537934541108455e-05  -1.3678245512032433e-05  -8.0692229814468078e-17  6.6216779585983114e-06  7.6486273626786799e-06  4.8061340637808348e-06  0.0000000000000000e+00  0.0000000000000000e+00  -1.5887120934273484e-04  -3.1364060564894859e-04  -4.6049086446319529e-04  -5.9588330723180734e-04  -7.1665543100408883e-04  -8.2012287779078380e-04  -9.0416419179291418e-04  -9.6728501365364703e-04  -1.0086592852393359e-03  -1.0281459919176026e-03  -1.0262809360435084e-03  -1.0042439977893489e-03  -9.6380327250703652e-04  -9.0723834782274542e-04  -8.3724576798506597e-04  -7.5683039881589069e-04  -6.6918692896784948e-04  -5.7757610230224003e-04  -4.8520045845686473e-04  -3.9508435723036652e-04  -3.0996287748712154e-04  -2.3218382016796494e-04  -1.6362652174679442e-04  -1.0564051941333729e-04  -5.9006328153256301e-05  -2.3919722949291719e-05  -1.1720354603599120e-16  1.3678245511837877e-05  1.8531205276476572e-05  1.6392052183352652e-05  9.4202684166404239e-06  0.0000000000000000e+00  0.0000000000000000e+00  -1.8205765738413810e-04  -3.5938298140922981e-04  -5.2751607169639037e-04  -6.8232552484585938e-04  -8.2012287779077611e-04  -9.3778227352980499e-04  -1.0328397292813163e-03  -1.1035682102901157e-03  -1.1490256977302960e-03  -1.1690745175890940e-03  -1.1643713221763229e-03  -1.1363282481635616e-03  -1.0870468767340711e-03  -1.0192276542096846e-03  -9.3605835825775617e-04  -8.4108598134396886e-04  -7.3807702012507876e-04  -6.3087158378687569e-04  -5.2323694997883253e-04  -4.1872619596832828e-04  -3.2054731521610617e-04  -2.3144780434539714e-04  -1.5361908900437816e-04  -8.8624373311075531e-05  -3.7352576739538252e-05  -1.5397731795436789e-16  2.3919722949022932e-05  3.5537934540885198e-05  3.6567155941543794e-05  2.9213833852281145e-05  1.6071203638423363e-05  0.0000000000000000e+00  0.0000000000000000e+00  -2.0108465199813295e-04  -3.9687841349847312e-04  -5.8234643951351930e-04  -7.5282744500929349e-04  -9.0416419179289542e-04  -1.0328397292813044e-03  -1.1360902181148601e-03  -1.2119901096673156e-03  -1.2595065265902212e-03  -1.2785208874009323e-03  -1.2698170853008637e-03  -1.2350368170012621e-03  -1.1766039129480037e-03  -1.0976206994511655e-03  -1.0017404820567729e-03  -8.9302113849378103e-04  -7.7576551493887830e-04  -6.5435480462007847e-04  -5.3308133469700180e-04  -4.1598718675765355e-04  -3.0671482847079742e-04  -2.0837544871602518e-04  -1.2343998477231665e-04  -5.3656935150784177e-05  -1.8736226769044787e-16  3.7352576739198328e-05  5.9006328152959291e-05  6.6307175322462915e-05  6.1268193329950177e-05  4.6469562923026496e-05  2.4935787919482796e-05  0.0000000000000000e+00  0.0000000000000000e+00  -2.1562963231143309e-04  -4.2548713411996806e-04  -6.2403693028033900e-04  -8.0615715108271367e-04  -9.6728501365361320e-04  -1.1035682102900869e-03  -1.2119901096672983e-03  -1.2904641246328508e-03  -1.3378937739412316e-03  -1.3541962811171812e-03  -1.3402889529423073e-03  -1.2980390054150453e-03  -1.2301789006893581e-03  -1.1401905710557367e-03  -1.0321630856824078e-03  -9.1062931791990355e-04  -7.8038795756008245e-04  -6.4631775378222131e-04  -5.1319115020714455e-04  -3.8549447326044061e-04  -2.6726155922833343e-04  -1.6192716485139119e-04  -7.2205722071591610e-05  -2.1392822992618479e-16  5.3656935150383395e-05  8.8624373310711415e-05  1.0564051941301875e-04  1.0627365789739714e-04  9.2840002723179604e-05  6.8291611850105737e-05  3.6078913628171899e-05  0.0000000000000000e+00  0.0000000000000000e+00  -2.2550971190186719e-04  -4.4484730391358045e-04  -6.5205571028842911e-04  -8.4162659144944676e-04  -1.0086592852392834e-03  -1.1490256977302470e-03  -1.2595065265901817e-03  -1.3378937739412088e-03  -1.3830557825427773e-03  -1.3949624581842334e-03  -1.3746698625675775e-03  -1.3242649131824222e-03  -1.2467724486120843e-03  -1.1460283504190708e-03  -1.0265237012445495e-03  -8.9322605378653556e-04  -7.5138474516286350e-04  -6.0632778312392057e-04  -4.6325813223709164e-04  -3.2705722823421978e-04  -2.0210324748041623e-04  -9.2111067835965062e-05  -2.3074701675409710e-16  7.2205722071146626e-05  1.2343998477189894e-04  1.5361908900399793e-04  1.6362652174646130e-04  1.5525897095094646e-04  1.3113585823388164e-04  9.4576083791052612e-05  4.9446954527749567e-05  0.0000000000000000e+00  0.0000000000000000e+00  -2.3068545804341787e-04  -4.5488241326863615e-04  -6.6629492535115313e-04  -8.5910546775156750e-04  -1.0281459919175284e-03  -1.1690745175890200e-03  -1.2785208874008657e-03  -1.3541962811171298e-03  -1.3949624581842041e-03  -1.4008582305328724e-03  -1.3730822992817260e-03  -1.3139332544647223e-03  -1.2267091708430731e-03  -1.1155707718318235e-03  -9.8537351821775723e-04  -8.4147515549033085e-04  -6.8952617817696731e-04  -5.3525130625999419e-04  -3.8423039333423611e-04  -2.4168718642327447e-04  -1.1229403355490760e-04  -2.3566848136495204e-16  9.2111067835497771e-05  1.6192716485093913e-04  2.0837544871559968e-04  2.3144780434500900e-04  2.3218382016762431e-04  2.1261200068192792e-04  1.7565166262193023e-04  1.2497948939406550e-04  6.4866091311714495e-05  0.0000000000000000e+00  0.0000000000000000e+00  -2.3125935896706971e-04  -4.5579817904395278e-04  -6.6706595322040593e-04  -8.5901477262685308e-04  -1.0262809360434100e-03  -1.1643713221762208e-03  -1.2698170853007661e-03  -1.3402889529422223e-03  -1.3746698625675133e-03  -1.3730822992816904e-03  -1.3368694247424050e-03  -1.2685308513502149e-03  -1.1716156465376600e-03  -1.0505767825655741e-03  -9.1059271467512225e-04  -7.5736301824817255e-04  -5.9688599588113495e-04  -4.3522684042668651e-04  -2.7828528432639128e-04  -1.3157166591244599e-04  -2.2748616756735381e-16  1.1229403355444311e-04  2.0210324747995358e-04  2.6726155922788414e-04  3.0671482847037307e-04  3.2054731521571802e-04  3.0996287748678018e-04  2.7722178401388422e-04  2.2553573900621455e-04  1.5892533637427124e-04  8.2045617199911288e-05  0.0000000000000000e+00  0.0000000000000000e+00  -2.2746912851969266e-04  -4.4806919594344023e-04  -6.5507946658192168e-04  -8.4230037124928005e-04  -1.0042439977892234e-03  -1.1363282481634280e-03  -1.2350368170011296e-03  -1.2980390054149228e-03  -1.3242649131823181e-03  -1.3139332544646457e-03  -1.2685308513501734e-03  -1.1907447055479591e-03  -1.0843493599900812e-03  -9.5405396885148814e-04  -8.0531503068220983e-04  -6.4412204577876664e-04  -4.7676438535507279e-04  -3.0958836710486578e-04  -1.4875389230730520e-04  -2.0607103256600355e-16  1.3157166591201095e-04  2.4168718642282708e-04  3.2705722823377146e-04  3.8549447326000313e-04  4.1598718675723884e-04  4.1872619596794783e-04  3.9508435723003101e-04  3.4754942998872686e-04  2.7961308015221175e-04  1.9562043316932124e-04  1.0058612356445133e-04  0.0000000000000000e+00  0.0000000000000000e+00  -2.1967616416627159e-04  -4.3241595526167972e-04  -6.3141119333213103e-04  -8.1038777025608643e-04  -9.6380327250688202e-04  -1.0870468767339046e-03  -1.1766039129478339e-03  -1.2301789006891948e-03  -1.2467724486119373e-03  -1.2267091708429512e-03  -1.1716156465375717e-03  -1.0843493599900342e-03  -9.6888143368156592e-04  -8.3013773336652788e-04  -6.7380451455636742e-04  -5.0610613228129820e-04  -3.3356339872992857e-04  -1.6274190543497140e-04  -1.7230247379714017e-16  1.4875389230692537e-04  2.7828528432598547e-04  3.8423039333381495e-04  4.6325813223666652e-04  5.1319115020672724e-04  5.3308133469660444e-04  5.2323694997846661e-04  4.8520045845654104e-04  4.2167797787838327e-04  3.3642319673717969e-04  2.3408032958283816e-04  1.1999227582995835e-04  0.0000000000000000e+00  0.0000000000000000e+00  -2.0834964343419818e-04  -4.0977318887348488e-04  -5.9745478657292472e-04  -7.6511992160739855e-04  -9.0723834782256197e-04  -1.0192276542094840e-03  -1.0976206994509578e-03  -1.1401905710555313e-03  -1.1460283504188783e-03  -1.1155707718316535e-03  -1.0505767825654364e-03  -9.5405396885139035e-04  -8.3013773336647627e-04  -6.8392791969805640e-04  -5.2128920839760557e-04  -3.4862299488172088e-04  -1.7261954823309889e-04  -1.2818451067043123e-16  1.6274190543466978e-04  3.0958836710452621e-04  4.3522684042631804e-04  5.3525130625960713e-04  6.0632778312352635e-04  6.4631775378183164e-04  6.5435480461970518e-04  6.3087158378653048e-04  5.7757610230193364e-04  4.9737835730706103e-04  3.9427017308291844e-04  2.7316295955347332e-04  1.3968971029324888e-04  0.0000000000000000e+00  0.0000000000000000e+00  -1.9404690078765887e-04  -3.8125081223483871e-04  -5.5486369256525368e-04  -7.0868054207197666e-04  -8.3724576798485358e-04  -9.3605835825752198e-04  -1.0017404820565265e-03  -1.0321630856821599e-03  -1.0265237012443110e-03  -9.8537351821753822e-04  -9.1059271467493327e-04  -8.0531503068205891e-04  -6.7380451455626182e-04  -5.2128920839755104e-04  -3.5375819173424482e-04  -1.7772980762749982e-04  -7.6531442552364668e-17  1.7261954823289332e-04  3.3356339872967573e-04  4.7676438535477946e-04  5.9688599588081002e-04  6.8952617817662079e-04  7.5138474516250648e-04  7.8038795755972640e-04  7.7576551493853483e-04  7.3807702012475913e-04  6.6918692896756466e-04  5.7218898179949961e-04  4.5128305822610533e-04  3.1160922830749446e-04  1.5904542032233300e-04  0.0000000000000000e+00  0.0000000000000000e+00  -1.7739086206737650e-04  -3.4808901089268519e-04  -5.0548431065651511e-04  -6.4350596727561903e-04  -7.5683039881565054e-04  -8.4108598134370193e-04  -8.9302113849349784e-04  -9.1062931791961472e-04  -8.9322605378625236e-04  -8.4147515549006413e-04  -7.5736301824793273e-04  -6.4412204577856259e-04  -5.0610613228113796e-04  -3.4862299488161067e-04  -1.7772980762744361e-04  -2.0718194857914311e-17  1.7772980762740230e-04  3.4862299488156985e-04  5.0610613228109828e-04  6.4412204577852389e-04  7.5736301824789575e-04  8.4147515549002965e-04  8.9322605378622071e-04  9.1062931791958577e-04  8.9302113849347160e-04  8.4108598134367916e-04  7.5683039881563113e-04  6.4350596727560331e-04  5.0548431065650329e-04  3.4808901089267727e-04  1.7739086206737255e-04  0.0000000000000000e+00  0.0000000000000000e+00  -1.5904542032233696e-04  -3.1160922830750232e-04  -4.5128305822611715e-04  -5.7218898179951523e-04  -6.6918692896758406e-04  -7.3807702012478201e-04  -7.7576551493856085e-04  -7.8038795755975545e-04  -7.5138474516253824e-04  -6.8952617817665516e-04  -5.9688599588084645e-04  -4.7676438535481763e-04  -3.3356339872971509e-04  -1.7261954823293376e-04  3.5492731712662169e-17  1.7772980762745857e-04  3.5375819173420357e-04  5.2128920839751027e-04  6.7380451455622170e-04  8.0531503068201988e-04  9.1059271467489608e-04  9.8537351821750439e-04  1.0265237012442798e-03  1.0321630856821311e-03  1.0017404820565003e-03  9.3605835825749943e-04  8.3724576798483450e-04  7.0868054207196126e-04  5.5486369256524198e-04  3.8125081223483085e-04  1.9404690078765494e-04  0.0000000000000000e+00  0.0000000000000000e+00  -1.3968971029325279e-04  -2.7316295955348113e-04  -3.9427017308293010e-04  -4.9737835730707654e-04  -5.7757610230195272e-04  -6.3087158378655303e-04  -6.5435480461973109e-04  -6.4631775378186048e-04  -6.0632778312355790e-04  -5.3525130625964095e-04  -4.3522684042635387e-04  -3.0958836710456373e-04  -1.6274190543470854e-04  8.8425629824150849e-17  1.7261954823305850e-04  3.4862299488168033e-04  5.2128920839756491e-04  6.8392791969801585e-04  8.3013773336643648e-04  9.5405396885135153e-04  1.0505767825654000e-03  1.1155707718316199e-03  1.1460283504188475e-03  1.1401905710555031e-03  1.0976206994509322e-03  1.0192276542094619e-03  9.0723834782254322e-04  7.6511992160738316e-04  5.9745478657291301e-04  4.0977318887347718e-04  2.0834964343419431e-04  0.0000000000000000e+00  0.0000000000000000e+00  -1.1999227582996214e-04  -2.3408032958284572e-04  -3.3642319673719107e-04  -4.2167797787839834e-04  -4.8520045845655975e-04  -5.2323694997848873e-04  -5.3308133469662981e-04  -5.1319115020675532e-04  -4.6325813223669737e-04  -3.8423039333384797e-04  -2.7828528432602027e-04  -1.4875389230696183e-04  1.3456471843157058e-16  1.6274190543493281e-04  3.3356339872988927e-04  5.0610613228125863e-04  6.7380451455632774e-04  8.3013773336648830e-04  9.6888143368152699e-04  1.0843493599899964e-03  1.1716156465375362e-03  1.2267091708429180e-03  1.2467724486119069e-03  1.2301789006891675e-03  1.1766039129478094e-03  1.0870468767338829e-03  9.6380327250686348e-04  8.1038777025607147e-04  6.3141119333211975e-04  4.3241595526167208e-04  2.1967616416626779e-04  0.0000000000000000e+00  0.0000000000000000e+00  -1.0058612356445499e-04  -1.9562043316932859e-04  -2.7961308015222265e-04  -3.4754942998874128e-04  -3.9508435723004890e-04  -4.1872619596796897e-04  -4.1598718675726312e-04  -3.8549447326003018e-04  -3.2705722823380095e-04  -2.4168718642285876e-04  -1.3157166591204445e-04  1.7099360820047327e-16  1.4875389230726893e-04  3.0958836710482854e-04  4.7676438535503474e-04  6.4412204577872804e-04  8.0531503068217113e-04  9.5405396885144976e-04  1.0843493599900435e-03  1.1907447055479227e-03  1.2685308513501392e-03  1.3139332544646141e-03  1.3242649131822892e-03  1.2980390054148968e-03  1.2350368170011062e-03  1.1363282481634074e-03  1.0042439977892056e-03  8.4230037124926552e-04  6.5507946658191073e-04  4.4806919594343286e-04  2.2746912851968898e-04  0.0000000000000000e+00  0.0000000000000000e+00  -8.2045617199914798e-05  -1.5892533637427823e-04  -2.2553573900622499e-04  -2.7722178401389799e-04  -3.0996287748679720e-04  -3.2054731521573819e-04  -3.0671482847039605e-04  -2.6726155922790972e-04  -2.0210324747998155e-04  -1.1229403355447321e-04  1.9562526713442758e-16  1.3157166591241265e-04  2.7828528432635670e-04  4.3522684042665094e-04  5.9688599588109863e-04  7.5736301824813569e-04  9.1059271467508539e-04  1.0505767825655381e-03  1.1716156465376246e-03  1.2685308513501808e-03  1.3368694247423729e-03  1.3730822992816605e-03  1.3746698625674860e-03  1.3402889529421981e-03  1.2698170853007436e-03  1.1643713221762006e-03  1.0262809360433926e-03  8.5901477262683877e-04  6.6706595322039530e-04  4.5579817904394567e-04  2.3125935896706613e-04  0.0000000000000000e+00  0.0000000000000000e+00  -6.4866091311717775e-05  -1.2497948939407203e-04  -1.7565166262194004e-04  -2.1261200068194088e-04  -2.3218382016764027e-04  -2.3144780434502789e-04  -2.0837544871562126e-04  -1.6192716485096320e-04  -9.2111067835523995e-05  2.0745531286066262e-16  1.1229403355487767e-04  2.4168718642324317e-04  3.8423039333420359e-04  5.3525130625996058e-04  6.8952617817693315e-04  8.4147515549029637e-04  9.8537351821772253e-04  1.1155707718317896e-03  1.2267091708430403e-03  1.3139332544646908e-03  1.3730822992816961e-03  1.4008582305328444e-03  1.3949624581841781e-03  1.3541962811171064e-03  1.2785208874008442e-03  1.1690745175890012e-03  1.0281459919175122e-03  8.5910546775155416e-04  6.6629492535114283e-04  4.5488241326862926e-04  2.3068545804341448e-04  0.0000000000000000e+00  0.0000000000000000e+00  -4.9446954527752609e-05  -9.4576083791058670e-05  -1.3113585823389069e-04  -1.5525897095095841e-04  -1.6362652174647610e-04  -1.5361908900401544e-04  -1.2343998477191889e-04  -7.2205722071168852e-05  2.0648758079895923e-16  9.2111067835938973e-05  2.0210324748038861e-04  3.2705722823419073e-04  4.6325813223706145e-04  6.0632778312388945e-04  7.5138474516283195e-04  8.9322605378650379e-04  1.0265237012445174e-03  1.1460283504190398e-03  1.2467724486120548e-03  1.3242649131823933e-03  1.3746698625675500e-03  1.3949624581842074e-03  1.3830557825427530e-03  1.3378937739411865e-03  1.2595065265901613e-03  1.1490256977302288e-03  1.0086592852392680e-03  8.4162659144943397e-04  6.5205571028841914e-04  4.4484730391357400e-04  2.2550971190186405e-04  0.0000000000000000e+00  0.0000000000000000e+00  -3.6078913628174677e-05  -6.8291611850111267e-05  -9.2840002723187858e-05  -1.0627365789740804e-04  -1.0564051941303222e-04  -8.8624373310727312e-05  -5.3656935150401542e-05  1.9370028310492792e-16  7.2205722071569492e-05  1.6192716485136744e-04  2.6726155922830828e-04  3.8549447326041426e-04  5.1319115020711733e-04  6.4631775378219301e-04  7.8038795756005361e-04  9.1062931791987428e-04  1.0321630856823785e-03  1.140190571055708