<?xml version="1.0"?>
<VTKFile type="UnstructuredGrid"  version="0.1"  >
<UnstructuredGrid>
<Piece  NumberOfPoints="1089" NumberOfCells="2048">
<Points>
<DataArray  type="Float64"  NumberOfComponents="3"  format="ascii">0 0 0  0.03125 0 0  0.0625 0 0  0.09375 0 0  0.125 0 0  0.15625 0 0  0.1875 0 0  0.21875 0 0  0.25 0 0  0.28125 0 0  0.3125 0 0  0.34375 0 0  0.375 0 0  0.40625 0 0  0.4375 0 0  0.46875 0 0  0.5 0 0  0.53125 0 0  0.5625 0 0  0.59375 0 0  0.625 0 0  0.65625 0 0  0.6875 0 0  0.71875 0 0  0.75 0 0  0.78125 0 0  0.8125 0 0  0.84375 0 0  0.875 0 0  0.90625 0 0  0.9375 0 0  0.96875 0 0  1 0 0  0 0.03125 0  0.03125 0.03125 0  0.0625 0.03125 0  0.09375 0.03125 0  0.125 0.03125 0  0.15625 0.03125 0  0.1875 0.03125 0  0.21875 0.03125 0  0.25 0.03125 0  0.28125 0.03125 0  0.3125 0.03125 0  0.34375 0.03125 0  0.375 0.03125 0  0.40625 0.03125 0  0.4375 0.03125 0  0.46875 0.03125 0  0.5 0.03125 0  0.53125 0.03125 0  0.5625 0.03125 0  0.59375 0.03125 0  0.625 0.03125 0  0.65625 0.03125 0  0.6875 0.03125 0  0.71875 0.03125 0  0.75 0.03125 0  0.78125 0.03125 0  0.8125 0.03125 0  0.84375 0.03125 0  0.875 0.03125 0  0.90625 0.03125 0  0.9375 0.03125 0  0.96875 0.03125 0  1 0.03125 0  0 0.0625 0  0.03125 0.0625 0  0.0625 0.0625 0  0.09375 0.0625 0  0.125 0.0625 0  0.15625 0.0625 0  0.1875 0.0625 0  0.21875 0.0625 0  0.25 0.0625 0  0.28125 0.0625 0  0.3125 0.0625 0  0.34375 0.0625 0  0.375 0.0625 0  0.40625 0.0625 0  0.4375 0.0625 0  0.46875 0.0625 0  0.5 0.0625 0  0.53125 0.0625 0  0.5625 0.0625 0  0.59375 0.0625 0  0.625 0.0625 0  0.65625 0.0625 0  0.6875 0.0625 0  0.71875 0.0625 0  0.75 0.0625 0  0.78125 0.0625 0  0.8125 0.0625 0  0.84375 0.0625 0  0.875 0.0625 0  0.90625 0.0625 0  0.9375 0.0625 0  0.96875 0.0625 0  1 0.0625 0  0 0.09375 0  0.03125 0.09375 0  0.0625 0.09375 0  0.09375 0.09375 0  0.125 0.09375 0  0.15625 0.09375 0  0.1875 0.09375 0  0.21875 0.09375 0  0.25 0.09375 0  0.28125 0.09375 0  0.3125 0.09375 0  0.34375 0.09375 0  0.375 0.09375 0  0.40625 0.09375 0  0.4375 0.09375 0  0.46875 0.09375 0  0.5 0.09375 0  0.53125 0.09375 0  0.5625 0.09375 0  0.59375 0.09375 0  0.625 0.09375 0  0.65625 0.09375 0  0.6875 0.09375 0  0.71875 0.09375 0  0.75 0.09375 0  0.78125 0.09375 0  0.8125 0.09375 0  0.84375 0.09375 0  0.875 0.09375 0  0.90625 0.09375 0  0.9375 0.09375 0  0.96875 0.09375 0  1 0.09375 0  0 0.125 0  0.03125 0.125 0  0.0625 0.125 0  0.09375 0.125 0  0.125 0.125 0  0.15625 0.125 0  0.1875 0.125 0  0.21875 0.125 0  0.25 0.125 0  0.28125 0.125 0  0.3125 0.125 0  0.34375 0.125 0  0.375 0.125 0  0.40625 0.125 0  0.4375 0.125 0  0.46875 0.125 0  0.5 0.125 0  0.53125 0.125 0  0.5625 0.125 0  0.59375 0.125 0  0.625 0.125 0  0.65625 0.125 0  0.6875 0.125 0  0.71875 0.125 0  0.75 0.125 0  0.78125 0.125 0  0.8125 0.125 0  0.84375 0.125 0  0.875 0.125 0  0.90625 0.125 0  0.9375 0.125 0  0.96875 0.125 0  1 0.125 0  0 0.15625 0  0.03125 0.15625 0  0.0625 0.15625 0  0.09375 0.15625 0  0.125 0.15625 0  0.15625 0.15625 0  0.1875 0.15625 0  0.21875 0.15625 0  0.25 0.15625 0  0.28125 0.15625 0  0.3125 0.15625 0  0.34375 0.15625 0  0.375 0.15625 0  0.40625 0.15625 0  0.4375 0.15625 0  0.46875 0.15625 0  0.5 0.15625 0  0.53125 0.15625 0  0.5625 0.15625 0  0.59375 0.15625 0  0.625 0.15625 0  0.65625 0.15625 0  0.6875 0.15625 0  0.71875 0.15625 0  0.75 0.15625 0  0.78125 0.15625 0  0.8125 0.15625 0  0.84375 0.15625 0  0.875 0.15625 0  0.90625 0.15625 0  0.9375 0.15625 0  0.96875 0.15625 0  1 0.15625 0  0 0.1875 0  0.03125 0.1875 0  0.0625 0.1875 0  0.09375 0.1875 0  0.125 0.1875 0  0.15625 0.1875 0  0.1875 0.1875 0  0.21875 0.1875 0  0.25 0.1875 0  0.28125 0.1875 0  0.3125 0.1875 0  0.34375 0.1875 0  0.375 0.1875 0  0.40625 0.1875 0  0.4375 0.1875 0  0.46875 0.1875 0  0.5 0.1875 0  0.53125 0.1875 0  0.5625 0.1875 0  0.59375 0.1875 0  0.625 0.1875 0  0.65625 0.1875 0  0.6875 0.1875 0  0.71875 0.1875 0  0.75 0.1875 0  0.78125 0.1875 0  0.8125 0.1875 0  0.84375 0.1875 0  0.875 0.1875 0  0.90625 0.1875 0  0.9375 0.1875 0  0.96875 0.1875 0  1 0.1875 0  0 0.21875 0  0.03125 0.21875 0  0.0625 0.21875 0  0.09375 0.21875 0  0.125 0.21875 0  0.15625 0.21875 0  0.1875 0.21875 0  0.21875 0.21875 0  0.25 0.21875 0  0.28125 0.21875 0  0.3125 0.21875 0  0.34375 0.21875 0  0.375 0.21875 0  0.40625 0.21875 0  0.4375 0.21875 0  0.46875 0.21875 0  0.5 0.21875 0  0.53125 0.21875 0  0.5625 0.21875 0  0.59375 0.21875 0  0.625 0.21875 0  0.65625 0.21875 0  0.6875 0.21875 0  0.71875 0.21875 0  0.75 0.21875 0  0.78125 0.21875 0  0.8125 0.21875 0  0.84375 0.21875 0  0.875 0.21875 0  0.90625 0.21875 0  0.9375 0.21875 0  0.96875 0.21875 0  1 0.21875 0  0 0.25 0  0.03125 0.25 0  0.0625 0.25 0  0.09375 0.25 0  0.125 0.25 0  0.15625 0.25 0  0.1875 0.25 0  0.21875 0.25 0  0.25 0.25 0  0.28125 0.25 0  0.3125 0.25 0  0.34375 0.25 0  0.375 0.25 0  0.40625 0.25 0  0.4375 0.25 0  0.46875 0.25 0  0.5 0.25 0  0.53125 0.25 0  0.5625 0.25 0  0.59375 0.25 0  0.625 0.25 0  0.65625 0.25 0  0.6875 0.25 0  0.71875 0.25 0  0.75 0.25 0  0.78125 0.25 0  0.8125 0.25 0  0.84375 0.25 0  0.875 0.25 0  0.90625 0.25 0  0.9375 0.25 0  0.96875 0.25 0  1 0.25 0  0 0.28125 0  0.03125 0.28125 0  0.0625 0.28125 0  0.09375 0.28125 0  0.125 0.28125 0  0.15625 0.28125 0  0.1875 0.28125 0  0.21875 0.28125 0  0.25 0.28125 0  0.28125 0.28125 0  0.3125 0.28125 0  0.34375 0.28125 0  0.375 0.28125 0  0.40625 0.28125 0  0.4375 0.28125 0  0.46875 0.28125 0  0.5 0.28125 0  0.53125 0.28125 0  0.5625 0.28125 0  0.59375 0.28125 0  0.625 0.28125 0  0.65625 0.28125 0  0.6875 0.28125 0  0.71875 0.28125 0  0.75 0.28125 0  0.78125 0.28125 0  0.8125 0.28125 0  0.84375 0.28125 0  0.875 0.28125 0  0.90625 0.28125 0  0.9375 0.28125 0  0.96875 0.28125 0  1 0.28125 0  0 0.3125 0  0.03125 0.3125 0  0.0625 0.3125 0  0.09375 0.3125 0  0.125 0.3125 0  0.15625 0.3125 0  0.1875 0.3125 0  0.21875 0.3125 0  0.25 0.3125 0  0.28125 0.3125 0  0.3125 0.3125 0  0.34375 0.3125 0  0.375 0.3125 0  0.40625 0.3125 0  0.4375 0.3125 0  0.46875 0.3125 0  0.5 0.3125 0  0.53125 0.3125 0  0.5625 0.3125 0  0.59375 0.3125 0  0.625 0.3125 0  0.65625 0.3125 0  0.6875 0.3125 0  0.71875 0.3125 0  0.75 0.3125 0  0.78125 0.3125 0  0.8125 0.3125 0  0.84375 0.3125 0  0.875 0.3125 0  0.90625 0.3125 0  0.9375 0.3125 0  0.96875 0.3125 0  1 0.3125 0  0 0.34375 0  0.03125 0.34375 0  0.0625 0.34375 0  0.09375 0.34375 0  0.125 0.34375 0  0.15625 0.34375 0  0.1875 0.34375 0  0.21875 0.34375 0  0.25 0.34375 0  0.28125 0.34375 0  0.3125 0.34375 0  0.34375 0.34375 0  0.375 0.34375 0  0.40625 0.34375 0  0.4375 0.34375 0  0.46875 0.34375 0  0.5 0.34375 0  0.53125 0.34375 0  0.5625 0.34375 0  0.59375 0.34375 0  0.625 0.34375 0  0.65625 0.34375 0  0.6875 0.34375 0  0.71875 0.34375 0  0.75 0.34375 0  0.78125 0.34375 0  0.8125 0.34375 0  0.84375 0.34375 0  0.875 0.34375 0  0.90625 0.34375 0  0.9375 0.34375 0  0.96875 0.34375 0  1 0.34375 0  0 0.375 0  0.03125 0.375 0  0.0625 0.375 0  0.09375 0.375 0  0.125 0.375 0  0.15625 0.375 0  0.1875 0.375 0  0.21875 0.375 0  0.25 0.375 0  0.28125 0.375 0  0.3125 0.375 0  0.34375 0.375 0  0.375 0.375 0  0.40625 0.375 0  0.4375 0.375 0  0.46875 0.375 0  0.5 0.375 0  0.53125 0.375 0  0.5625 0.375 0  0.59375 0.375 0  0.625 0.375 0  0.65625 0.375 0  0.6875 0.375 0  0.71875 0.375 0  0.75 0.375 0  0.78125 0.375 0  0.8125 0.375 0  0.84375 0.375 0  0.875 0.375 0  0.90625 0.375 0  0.9375 0.375 0  0.96875 0.375 0  1 0.375 0  0 0.40625 0  0.03125 0.40625 0  0.0625 0.40625 0  0.09375 0.40625 0  0.125 0.40625 0  0.15625 0.40625 0  0.1875 0.40625 0  0.21875 0.40625 0  0.25 0.40625 0  0.28125 0.40625 0  0.3125 0.40625 0  0.34375 0.40625 0  0.375 0.40625 0  0.40625 0.40625 0  0.4375 0.40625 0  0.46875 0.40625 0  0.5 0.40625 0  0.53125 0.40625 0  0.5625 0.40625 0  0.59375 0.40625 0  0.625 0.40625 0  0.65625 0.40625 0  0.6875 0.40625 0  0.71875 0.40625 0  0.75 0.40625 0  0.78125 0.40625 0  0.8125 0.40625 0  0.84375 0.40625 0  0.875 0.40625 0  0.90625 0.40625 0  0.9375 0.40625 0  0.96875 0.40625 0  1 0.40625 0  0 0.4375 0  0.03125 0.4375 0  0.0625 0.4375 0  0.09375 0.4375 0  0.125 0.4375 0  0.15625 0.4375 0  0.1875 0.4375 0  0.21875 0.4375 0  0.25 0.4375 0  0.28125 0.4375 0  0.3125 0.4375 0  0.34375 0.4375 0  0.375 0.4375 0  0.40625 0.4375 0  0.4375 0.4375 0  0.46875 0.4375 0  0.5 0.4375 0  0.53125 0.4375 0  0.5625 0.4375 0  0.59375 0.4375 0  0.625 0.4375 0  0.65625 0.4375 0  0.6875 0.4375 0  0.71875 0.4375 0  0.75 0.4375 0  0.78125 0.4375 0  0.8125 0.4375 0  0.84375 0.4375 0  0.875 0.4375 0  0.90625 0.4375 0  0.9375 0.4375 0  0.96875 0.4375 0  1 0.4375 0  0 0.46875 0  0.03125 0.46875 0  0.0625 0.46875 0  0.09375 0.46875 0  0.125 0.46875 0  0.15625 0.46875 0  0.1875 0.46875 0  0.21875 0.46875 0  0.25 0.46875 0  0.28125 0.46875 0  0.3125 0.46875 0  0.34375 0.46875 0  0.375 0.46875 0  0.40625 0.46875 0  0.4375 0.46875 0  0.46875 0.46875 0  0.5 0.46875 0  0.53125 0.46875 0  0.5625 0.46875 0  0.59375 0.46875 0  0.625 0.46875 0  0.65625 0.46875 0  0.6875 0.46875 0  0.71875 0.46875 0  0.75 0.46875 0  0.78125 0.46875 0  0.8125 0.46875 0  0.84375 0.46875 0  0.875 0.46875 0  0.90625 0.46875 0  0.9375 0.46875 0  0.96875 0.46875 0  1 0.46875 0  0 0.5 0  0.03125 0.5 0  0.0625 0.5 0  0.09375 0.5 0  0.125 0.5 0  0.15625 0.5 0  0.1875 0.5 0  0.21875 0.5 0  0.25 0.5 0  0.28125 0.5 0  0.3125 0.5 0  0.34375 0.5 0  0.375 0.5 0  0.40625 0.5 0  0.4375 0.5 0  0.46875 0.5 0  0.5 0.5 0  0.53125 0.5 0  0.5625 0.5 0  0.59375 0.5 0  0.625 0.5 0  0.65625 0.5 0  0.6875 0.5 0  0.71875 0.5 0  0.75 0.5 0  0.78125 0.5 0  0.8125 0.5 0  0.84375 0.5 0  0.875 0.5 0  0.90625 0.5 0  0.9375 0.5 0  0.96875 0.5 0  1 0.5 0  0 0.53125 0  0.03125 0.53125 0  0.0625 0.53125 0  0.09375 0.53125 0  0.125 0.53125 0  0.15625 0.53125 0  0.1875 0.53125 0  0.21875 0.53125 0  0.25 0.53125 0  0.28125 0.53125 0  0.3125 0.53125 0  0.34375 0.53125 0  0.375 0.53125 0  0.40625 0.53125 0  0.4375 0.53125 0  0.46875 0.53125 0  0.5 0.53125 0  0.53125 0.53125 0  0.5625 0.53125 0  0.59375 0.53125 0  0.625 0.53125 0  0.65625 0.53125 0  0.6875 0.53125 0  0.71875 0.53125 0  0.75 0.53125 0  0.78125 0.531
[...]
<PointData  Scalars="phi"> 
<DataArray  type="Float64"  Name="phi"  format="ascii">0.0000000000000000e+00  0.0000000000000000e+00  0.0000000000000000e+00  0.0000000000000000e+00  0.0000000000000000e+00  0.0000000000000000e+00  0.0000000000000000e+00  0.0000000000000000e+00  0.0000000000000000e+00  0.0000000000000000e+00  0.0000000000000000e+00  0.0000000000000000e+00  0.0000000000000000e+00  0.0000000000000000e+00  0.0000000000000000e+00  0.0000000000000000e+00  0.0000000000000000e+00  0.0000000000000000e+00  0.0000000000000000e+00  0.0000000000000000e+00  0.0000000000000000e+00  0.0000000000000000e+00  0.0000000000000000e+00  0.0000000000000000e+00  0.0000000000000000e+00  0.0000000000000000e+00  0.0000000000000000e+00  0.0000000000000000e+00  0.0000000000000000e+00  0.0000000000000000e+00  0.0000000000000000e+00  0.0000000000000000e+00  0.0000000000000000e+00  0.0000000000000000e+00  -8.3179535845077983e-05  -1.6404652174148080e-04  -2.4080200097538731e-04  -3.1171423060263729e-04  -3.7521369906470857e-04  -4.2995746323377406e-04  -4.7487656377447594e-04  -5.0921018948376501e-04  -5.3252724340216624e-04  -5.4473529573048781e-04  -5.4607697408278041e-04  -5.3711415292484487e-04  -5.1870069329204311e-04  -4.9194488132151448e-04  -4.5816308353793843e-04  -4.1882645532955403e-04  -3.7550279056987714e-04  -3.2979577343778086e-04  -2.8328398067144461e-04  -2.3746198002486601e-04  -1.9368577852834382e-04  -1.5312469582236878e-04  -1.1672148028267420e-04  -8.5162158965241126e-05  -5.8856729438708017e-05  -3.7931377584310349e-05  -2.2232457698750570e-05  -1.1342018919365448e-05  -4.6042269430410336e-06  -1.1616400969462605e-06  -1.2985030620942941e-17  0.0000000000000000e+00  0.0000000000000000e+00  -1.6404652174148042e-04  -3.2371547974340844e-04  -4.7530705621608317e-04  -6.1534371459520502e-04  -7.4069593455813681e-04  -8.4869297503770906e-04  -9.3721184830577282e-04  -1.0047434445813984e-03  -1.0504347361955880e-03  -1.0741062980783554e-03  -1.0762449947664798e-03  -1.0579724591165953e-03  -1.0209908173413251e-03  -9.6750792718678594e-04  -9.0014514034916326e-04  -8.2183123847027638e-04  -7.3568669502109335e-04  -6.4490276139508797e-04  -5.5262005012956280e-04  -4.6181128410722181e-04  -3.7517269783339188e-04  -2.9502822248869784e-04  -2.2325007422518284e-04  -1.6119871511826526e-04  -1.0968439379980510e-04  -6.8951628181545177e-05  -3.8687099631336564e-05  -1.8050523189849644e-05  -5.7271811601388010e-06  -5.0871940290940552e-17  1.1616400968948403e-06  0.0000000000000000e+00  0.0000000000000000e+00  -2.4080200097538576e-04  -4.7530705621608128e-04  -6.9795435304823711e-04  -9.0355599330528753e-04  -1.0874605438340496e-03  -1.2457069815239403e-03  -1.3751520427967303e-03  -1.4735662680250340e-03  -1.5396956606137163e-03  -1.5732871722772019e-03  -1.5750775050191951e-03  -1.5467460297423840e-03  -1.4908339232650371e-03  -1.4106328644789830e-03  -1.3100477522805130e-03  -1.1934388649340751e-03  -1.0654496330183062e-03  -9.3082671548990956e-04  -7.9423932993551128e-04  -6.6010478333221106e-04  -5.3242687870729650e-04  -4.1465334651147930e-04  -3.0955768780951986e-04  -2.1914984923460776e-04  -1.4461901479163918e-04  -8.6310541439495783e-05  -4.3737733414541675e-05  -1.5627797287012193e-05  -1.1012628662966414e-16  5.7271811599890744e-06  4.6042269429653283e-06  0.0000000000000000e+00  0.0000000000000000e+00  -3.1171423060263350e-04  -6.1534371459519917e-04  -9.0355599330528254e-04  -1.1695282390034368e-03  -1.4071552471814196e-03  -1.6112469497504148e-03  -1.7776927635781811e-03  -1.9035860792095914e-03  -1.9873042760098778e-03  -2.0285415419686926e-03  -2.0282936178598844e-03  -1.9887954052307988e-03  -1.9134141451952805e-03  -1.8065025357338440e-03  -1.6732176490220916e-03  -1.5193127802751354e-03  -1.3509103565557926e-03  -1.1742647192470989e-03  -9.9552394088370981e-04  -8.2049983240897154e-04  -6.5445494098580171e-04  -5.0191464518021904e-04  -3.6651145066763464e-04  -2.5086731461559388e-04  -1.5651833012208849e-04  -8.3884441697236673e-05  -3.2285103283767010e-05  -1.8508513424367902e-16  1.5627797286726594e-05  1.8050523189655416e-05  1.1342018919267206e-05  0.0000000000000000e+00  0.0000000000000000e+00  -3.7521369906470120e-04  -7.4069593455812445e-04  -1.0874605438340357e-03  -1.4071552471814092e-03  -1.6923156632295345e-03  -1.9366061207714369e-03  -2.1350198473418474e-03  -2.2840305932149037e-03  -2.3816899517668409e-03  -2.4276668982734619e-03  -2.4232283557791782e-03  -2.3711618701864924e-03  -2.2756436796838933e-03  -2.1420575267657167e-03  -1.9767714123520271e-03  -1.7868810629883430e-03  -1.5799301148425838e-03  -1.3636178655407527e-03  -1.1455058746566303e-03  -9.3273468973748680e-04  -7.3176153763104682e-04  -5.4812896778880140e-04  -3.8627319839540668e-04  -2.4937934559412047e-04  -1.3928887160358745e-04  -5.6462540510418991e-05  -2.6847849823899997e-16  3.2285103283321044e-05  4.3737733414197420e-05  3.8687099631102343e-05  2.2232457698632060e-05  0.0000000000000000e+00  0.0000000000000000e+00  -4.2995746323376175e-04  -8.4869297503768694e-04  -1.2457069815239130e-03  -1.6112469497503883e-03  -1.9366061207714189e-03  -2.2144060492807049e-03  -2.4388310011459755e-03  -2.6058052246141373e-03  -2.7131064469008534e-03  -2.7604115010983338e-03  -2.7492726479478890e-03  -2.6830258323121518e-03  -2.5666347160862553e-03  -2.4064767679105666e-03  -2.2100798779663214e-03  -1.9858198229315734e-03  -1.7425903626017238e-03  -1.4894587510373267e-03  -1.2353199537587338e-03  -9.8856285956684989e-04  -7.5676126171416174e-04  -5.4640137866723403e-04  -3.6265622872094268e-04  -2.0921532171064370e-04  -8.8175956625976908e-05  -3.5207913954951664e-16  5.6462540509803814e-05  8.3884441696725336e-05  8.6310541439100835e-05  6.8951628181276349e-05  3.7931377584174288e-05  0.0000000000000000e+00  0.0000000000000000e+00  -4.7487656377445686e-04  -9.3721184830573736e-04  -1.3751520427966843e-03  -1.7776927635781317e-03  -2.1350198473418028e-03  -2.4388310011459469e-03  -2.6826021754218451e-03  -2.8617886685501862e-03  -2.9739535068603051e-03  -3.0188184761834646e-03  -2.9982361759459701e-03  -2.9160845040112279e-03  -2.7780879460870597e-03  -2.5915728279383506e-03  -2.3651661887164723e-03  -2.1084500561787548e-03  -1.8315845698168244e-03  -1.5449145433157640e-03  -1.2585746403160122e-03  -9.8210833555896580e-04  -7.2411524792480471e-04  -4.9194028574436584e-04  -2.9141638271232295e-04  -1.2667048915453958e-04  -4.2743270475217908e-16  8.8175956625200497e-05  1.3928887160290842e-04  1.5651833012152359e-04  1.4461901479120254e-04  1.0968439379950774e-04  5.8856729438557449e-05  0.0000000000000000e+00  0.0000000000000000e+00  -5.0921018948373747e-04  -1.0047434445813463e-03  -1.4735662680249633e-03  -1.9035860792095114e-03  -2.2840305932148239e-03  -2.6058052246140696e-03  -2.8617886685501459e-03  -3.0470556828359383e-03  -3.1590188672497989e-03  -3.1974843450972477e-03  -3.1646195579288754e-03  -3.0648347511470593e-03  -2.9045830244471831e-03  -2.6920869206361036e-03  -2.4370023118565698e-03  -2.1500327082481633e-03  -1.8425089711045328e-03  -1.5259506904484617e-03  -1.2116261374925687e-03  -9.1012770149824019e-04  -6.3097906884633254e-04  -3.8228912539307696e-04  -1.7046571107708010e-04  -4.8655201736061342e-16  1.2667048915362663e-04  2.0921532170981318e-04  2.4937934559339308e-04  2.5086731461498808e-04  2.1914984923413917e-04  1.6119871511794594e-04  8.5162158965079390e-05  0.0000000000000000e+00  0.0000000000000000e+00  -5.3252724340212829e-04  -1.0504347361955158e-03  -1.5396956606136170e-03  -1.9873042760097607e-03  -2.3816899517667173e-03  -2.7131064469007376e-03  -2.9739535068602119e-03  -3.1590188672497447e-03  -3.2656317694230831e-03  -3.2937224680895131e-03  -3.2457858044601176e-03  -3.1267505844699475e-03  -2.9437600958475384e-03  -2.7058724810838522e-03  -2.4236927258621073e-03  -2.1089506080479254e-03  -1.7740409824122147e-03  -1.4315441737099799e-03  -1.0937449626618034e-03  -7.7216864916046404e-04  -4.7715196534984752e-04  -2.1746521609451256e-04  -5.2271930497813541e-16  1.7046571107606998e-04  2.9141638271137308e-04  3.6265622872007689e-04  3.8627319839464708e-04  3.6651145066700125e-04  3.0955768780902937e-04  2.2325007422484836e-04  1.1672148028250471e-04  0.0000000000000000e+00  0.0000000000000000e+00  -5.4473529573043826e-04  -1.0741062980782602e-03  -1.5732871722770689e-03  -2.0285415419685321e-03  -2.4276668982732867e-03  -2.7604115010981594e-03  -3.0188184761833071e-03  -3.1974843450971249e-03  -3.2937224680894429e-03  -3.3076255004521058e-03  -3.2420248164959963e-03  -3.1023487883807817e-03  -2.8963856655736366e-03  -2.6339604348452881e-03  -2.3265383102842657e-03  -1.9867702822814201e-03  -1.6279983374042810e-03  -1.2637394642021744e-03  -9.0716832609425953e-04  -5.7061848276656647e-04  -2.6512127654308032e-04  -5.3096402763397789e-16  2.1746521609345668e-04  3.8228912539205293e-04  4.9194028574340025e-04  5.4640137866635171e-04  5.4812896778802609e-04  5.0191464517957167e-04  4.1465334651097743e-04  2.9502822248835529e-04  1.5312469582219512e-04  0.0000000000000000e+00  0.0000000000000000e+00  -5.4607697408271807e-04  -1.0762449947663592e-03  -1.5750775050190249e-03  -2.0282936178596753e-03  -2.4232283557789457e-03  -2.7492726479476474e-03  -2.9982361759457389e-03  -3.1646195579286733e-03  -3.2457858044599654e-03  -3.2420248164959121e-03  -3.1565087771012177e-03  -2.9951404537016616e-03  -2.7663005147374052e-03  -2.4805038149852215e-03  -2.1499780688807920e-03  -1.7881812775123783e-03  -1.4092765894496064e-03  -1.0275848695666351e-03  -6.5703606267052128e-04  -3.1064043929899805e-04  -5.0852383355232805e-16  2.6512127654203764e-04  4.7715196534880538e-04  6.3097906884531751e-04  7.2411524792384389e-04  7.5676126171328147e-04  7.3176153763027151e-04  6.5445494098515314e-04  5.3242687870679322e-04  3.7517269783304808e-04  1.9368577852816934e-04  0.0000000000000000e+00  0.0000000000000000e+00  -5.3711415292476876e-04  -1.0579724591164475e-03  -1.5467460297421732e-03  -1.9887954052305373e-03  -2.3711618701861958e-03  -2.6830258323118370e-03  -2.9160845040109148e-03  -3.0648347511467687e-03  -3.1267505844697007e-03  -3.1023487883806008e-03  -2.9951404537015636e-03  -2.8114705403334975e-03  -2.5602518731368661e-03  -2.2526040045863140e-03  -1.9014110051341895e-03  -1.5208153270153311e-03  -1.1256673108021172e-03  -7.3095157334648669e-04  -3.5121236691856817e-04  -4.5517946083710580e-16  3.1064043929803078e-04  5.7061848276556662e-04  7.7216864915945823e-04  9.1012770149725530e-04  9.8210833555802970e-04  9.8856285956598925e-04  9.3273468973672645e-04  8.2049983240833424e-04  6.6010478333171558e-04  4.6181128410688305e-04  2.3746198002469403e-04  0.0000000000000000e+00  0.0000000000000000e+00  -5.1870069329195247e-04  -1.0209908173411486e-03  -1.4908339232647841e-03  -1.9134141451949633e-03  -2.2756436796835299e-03  -2.5666347160858624e-03  -2.7780879460866589e-03  -2.9045830244467975e-03  -2.9437600958471910e-03  -2.8963856655733486e-03  -2.7663005147371971e-03  -2.5602518731367547e-03  -2.2876164904296553e-03  -1.9600254180879581e-03  -1.5909050696722134e-03  -1.1949523206097089e-03  -7.8756391796019768e-04  -3.8424219914628835e-04  -3.7320968190000291e-16  3.5121236691773637e-04  6.5703606266962541e-04  9.0716832609332343e-04  1.0937449626608540e-03  1.2116261374916330e-03  1.2585746403151184e-03  1.2353199537579092e-03  1.1455058746558991e-03  9.9552394088309485e-04  7.9423932993503261e-04  5.5262005012923494e-04  2.8328398067127813e-04  0.0000000000000000e+00  0.0000000000000000e+00  -4.9194488132140910e-04  -9.6750792718658038e-04  -1.4106328644786859e-03  -1.8065025357334702e-03  -2.1420575267652830e-03  -2.4064767679100930e-03  -2.5915728279378601e-03  -2.6920869206356187e-03  -2.7058724810833973e-03  -2.6339604348448874e-03  -2.4805038149848962e-03  -2.2526040045860833e-03  -1.9600254180878363e-03  -1.6148097084193779e-03  -1.2308044337895779e-03  -8.2312438989337339e-04  -4.0756638420210909e-04  -2.6744267853573229e-16  3.8424219914564493e-04  7.3095157334575128e-04  1.0275848695658284e-03  1.2637394642013204e-03  1.4315441737091045e-03  1.5259506904475926e-03  1.5449145433149283e-03  1.4894587510365515e-03  1.3636178655400629e-03  1.1742647192465175e-03  9.3082671548945571e-04  6.4490276139477680e-04  3.2979577343762267e-04  0.0000000000000000e+00  0.0000000000000000e+00  -4.5816308353781874e-04  -9.0014514034892886e-04  -1.3100477522801739e-03  -1.6732176490216616e-03  -1.9767714123515258e-03  -2.2100798779657684e-03  -2.3651661887158903e-03  -2.4370023118559844e-03  -2.4236927258615448e-03  -2.3265383102837496e-03  -2.1499780688803466e-03  -1.9014110051338339e-03  -1.5909050696719645e-03  -1.2308044337894491e-03  -8.3525024519081367e-04  -4.1963334088350413e-04  -1.4459986587686618e-16  4.0756638420169508e-04  7.8756391795967032e-04  1.1256673108014921e-03  1.4092765894489034e-03  1.6279983374035229e-03  1.7740409824114275e-03  1.8425089711037433e-03  1.8315845698160596e-03  1.7425903626010098e-03  1.5799301148419454e-03  1.3509103565552526e-03  1.0654496330178842e-03  7.3568669502080321e-04  3.7550279056972947e-04  0.0000000000000000e+00  0.0000000000000000e+00  -4.1882645532942094e-04  -8.2183123847001530e-04  -1.1934388649336961e-03  -1.5193127802746531e-03  -1.7868810629877762e-03  -1.9858198229309437e-03  -2.1084500561780865e-03  -2.1500327082474820e-03  -2.1089506080472571e-03  -1.9867702822807913e-03  -1.7881812775118128e-03  -1.5208153270148499e-03  -1.1949523206093307e-03  -8.2312438989311297e-04  -4.1963334088337137e-04  -1.2579138886335010e-17  4.1963334088334638e-04  8.2312438989308825e-04  1.1949523206093065e-03  1.5208153270148258e-03  1.7881812775117894e-03  1.9867702822807696e-03  2.1089506080472376e-03  2.1500327082474638e-03  2.1084500561780709e-03  1.9858198229309298e-03  1.7868810629877640e-03  1.5193127802746438e-03  1.1934388649336891e-03  8.2183123847001075e-04  4.1882645532941866e-04  0.0000000000000000e+00  0.0000000000000000e+00  -3.7550279056973169e-04  -7.3568669502080777e-04  -1.0654496330178911e-03  -1.3509103565552622e-03  -1.5799301148419573e-03  -1.7425903626010239e-03  -1.8315845698160754e-03  -1.8425089711037613e-03  -1.7740409824114475e-03  -1.6279983374035444e-03  -1.4092765894489264e-03  -1.1256673108015155e-03  -7.8756391795969407e-04  -4.0756638420171953e-04  1.1985951338821178e-16  4.1963334088347920e-04  8.3525024519078852e-04  1.2308044337894239e-03  1.5909050696719389e-03  1.9014110051338085e-03  2.1499780688803223e-03  2.3265383102837279e-03  2.4236927258615253e-03  2.4370023118559670e-03  2.3651661887158751e-03  2.2100798779657537e-03  1.9767714123515136e-03  1.6732176490216525e-03  1.3100477522801671e-03  9.0014514034892463e-04  4.5816308353781668e-04  0.0000000000000000e+00  0.0000000000000000e+00  -3.2979577343762495e-04  -6.4490276139478157e-04  -9.3082671548946287e-04  -1.1742647192465273e-03  -1.3636178655400749e-03  -1.4894587510365651e-03  -1.5449145433149441e-03  -1.5259506904476104e-03  -1.4315441737091242e-03  -1.2637394642013410e-03  -1.0275848695658501e-03  -7.3095157334577394e-04  -3.8424219914566808e-04  2.4368520872478731e-16  4.0756638420208491e-04  8.2312438989334900e-04  1.2308044337895527e-03  1.6148097084193527e-03  1.9600254180878107e-03  2.2526040045860577e-03  2.4805038149848723e-03  2.6339604348448661e-03  2.7058724810833787e-03  2.6920869206356023e-03  2.5915728279378449e-03  2.4064767679100795e-03  2.1420575267652718e-03  1.8065025357334613e-03  1.4106328644786794e-03  9.6750792718657604e-04  4.9194488132140704e-04  0.0000000000000000e+00  0.0000000000000000e+00  -2.8328398067128041e-04  -5.5262005012923971e-04  -7.9423932993503976e-04  -9.9552394088310439e-04  -1.1455058746559109e-03  -1.2353199537579224e-03  -1.2585746403151340e-03  -1.2116261374916504e-03  -1.0937449626608731e-03  -9.0716832609334381e-04  -6.5703606266964633e-04  -3.5121236691775816e-04  3.5079178079590622e-16  3.8424219914626553e-04  7.8756391796017426e-04  1.1949523206096851e-03  1.5909050696721887e-03  1.9600254180879330e-03  2.2876164904296302e-03  2.5602518731367300e-03  2.7663005147371741e-03  2.8963856655733282e-03  2.9437600958471732e-03  2.9045830244467819e-03  2.7780879460866451e-03  2.5666347160858498e-03  2.2756436796835186e-03  1.9134141451949546e-03  1.4908339232647771e-03  1.0209908173411443e-03  5.1870069329195041e-04  0.0000000000000000e+00  0.0000000000000000e+00  -2.3746198002469625e-04  -4.6181128410688755e-04  -6.6010478333172219e-04  -8.2049983240834313e-04  -9.3273468973673751e-04  -9.8856285956600183e-04  -9.8210833555804422e-04  -9.1012770149727167e-04  -7.7216864915947590e-04  -5.7061848276558560e-04  -3.1064043929805068e-04  4.3438250283630340e-16  3.5121236691854681e-04  7.3095157334646457e-04  1.1256673108020945e-03  1.5208153270153076e-03  1.9014110051341652e-03  2.2526040045862897e-03  2.5602518731368410e-03  2.8114705403334745e-03  2.9951404537015423e-03  3.1023487883805817e-03  3.1267505844696846e-03  3.0648347511467544e-03  2.9160845040109018e-03  2.6830258323118248e-03  2.3711618701861854e-03  1.9887954052305286e-03  1.5467460297421669e-03  1.0579724591164433e-03  5.3711415292476681e-04  0.0000000000000000e+00  0.0000000000000000e+00  -1.9368577852817140e-04  -3.7517269783305231e-04  -5.3242687870679929e-04  -6.5445494098516116e-04  -7.3176153763028148e-04  -7.5676126171329351e-04  -7.2411524792385744e-04  -6.3097906884533258e-04  -4.7715196534882192e-04  -2.6512127654205542e-04  4.8979111393198884e-16  3.1064043929897837e-04  6.5703606267050112e-04  1.0275848695666140e-03  1.4092765894495852e-03  1.7881812775123562e-03  2.1499780688807686e-03  2.4805038149851989e-03  2.7663005147373831e-03  2.9951404537016417e-03  3.1565087771011991e-03  3.2420248164958952e-03  3.2457858044599502e-03  3.1646195579286608e-03  2.9982361759457263e-03  2.7492726479476362e-03  2.4232283557789345e-03  2.0282936178596667e-03  1.5750775050190184e-03  1.0762449947663555e-03  5.4607697408271634e-04  0.0000000000000000e+00  0.0000000000000000e+00  -1.5312469582219701e-04  -2.9502822248835914e-04  -4.1465334651098306e-04  -5.0191464517957904e-04  -5.4812896778803541e-04  -5.4640137866636266e-04  -4.9194028574341272e-04  -3.8228912539206691e-04  -2.1746521609347186e-04  5.1458319734044419e-16  2.6512127654306297e-04  5.7061848276654826e-04  9.0716832609424045e-04  1.2637394642021546e-03  1.6279983374042604e-03  1.9867702822813993e-03  2.3265383102842440e-03  2.6339604348452677e-03  2.8963856655736171e-03  3.1023487883807643e-03  3.2420248164959798e-03  3.3076255004520902e-03  3.2937224680894290e-03  3.1974843450971123e-03  3.0188184761832946e-03  2.7604115010981482e-03  2.4276668982732767e-03  2.0285415419685239e-03  1.5732871722770627e-03  1.0741062980782565e-03  5.4473529573043653e-04  0.0000000000000000e+00  0.0000000000000000e+00  -1.1672148028250643e-04  -2.2325007422485183e-04  -3.0955768780903457e-04  -3.6651145066700808e-04  -3.8627319839465560e-04  -3.6265622872008686e-04  -2.9141638271138441e-04  -1.7046571107608258e-04  5.0888550368559729e-16  2.1746521609449770e-04  4.7715196534983180e-04  7.7216864916044756e-04  1.0937449626617860e-03  1.4315441737099617e-03  1.7740409824121960e-03  2.1089506080479064e-03  2.4236927258620882e-03  2.7058724810838332e-03  2.9437600958475219e-03  3.1267505844699310e-03  3.2457858044601029e-03  3.2937224680894984e-03  3.2656317694230701e-03  3.1590188672497316e-03  2.9739535068601993e-03  2.7131064469007263e-03  2.3816899517667077e-03  1.9873042760097520e-03  1.5396956606136105e-03  1.0504347361955124e-03  5.3252724340212656e-04  0.0000000000000000e+00  0.0000000000000000e+00  -8.5162158965080935e-05  -1.6119871511794900e-04  -2.1914984923414375e-04  -2.5086731461499421e-04  -2.4937934559340067e-04  -2.0921532170982209e-04  -1.2667048915363676e-04  4.7524008241369545e-16  1.7046571107706771e-04  3.8228912539306351e-04  6.3097906884631834e-04  9.1012770149822501e-04  1.2116261374925529e-03  1.5259506904484453e-03  1.8425089711045157e-03  2.1500327082481455e-03  2.4370023118565516e-03  2.692086920636086