<?xml version="1.0"?>
<VTKFile type="UnstructuredGrid"  version="0.1"  >
<UnstructuredGrid>
<Piece  NumberOfPoints="1089" NumberOfCells="2048">
<Points>
<DataArray  type="Float64"  NumberOfComponents="3"  format="ascii">0 0 0  0.03125 0 0  0.0625 0 0  0.09375 0 0  0.125 0 0  0.15625 0 0  0.1875 0 0  0.21875 0 0  0.25 0 0  0.28125 0 0  0.3125 0 0  0.34375 0 0  0.375 0 0  0.40625 0 0  0.4375 0 0  0.46875 0 0  0.5 0 0  0.53125 0 0  0.5625 0 0  0.59375 0 0  0.625 0 0  0.65625 0 0  0.6875 0 0  0.71875 0 0  0.75 0 0  0.78125 0 0  0.8125 0 0  0.84375 0 0  0.875 0 0  0.90625 0 0  0.9375 0 0  0.96875 0 0  1 0 0  0 0.03125 0  0.03125 0.03125 0  0.0625 0.03125 0  0.09375 0.03125 0  0.125 0.03125 0  0.15625 0.03125 0  0.1875 0.03125 0  0.21875 0.03125 0  0.25 0.03125 0  0.28125 0.03125 0  0.3125 0.03125 0  0.34375 0.03125 0  0.375 0.03125 0  0.40625 0.03125 0  0.4375 0.03125 0  0.46875 0.03125 0  0.5 0.03125 0  0.53125 0.03125 0  0.5625 0.03125 0  0.59375 0.03125 0  0.625 0.03125 0  0.65625 0.03125 0  0.6875 0.03125 0  0.71875 0.03125 0  0.75 0.03125 0  0.78125 0.03125 0  0.8125 0.03125 0  0.84375 0.03125 0  0.875 0.03125 0  0.90625 0.03125 0  0.9375 0.03125 0  0.96875 0.03125 0  1 0.03125 0  0 0.0625 0  0.03125 0.0625 0  0.0625 0.0625 0  0.09375 0.0625 0  0.125 0.0625 0  0.15625 0.0625 0  0.1875 0.0625 0  0.21875 0.0625 0  0.25 0.0625 0  0.28125 0.0625 0  0.3125 0.0625 0  0.34375 0.0625 0  0.375 0.0625 0  0.40625 0.0625 0  0.4375 0.0625 0  0.46875 0.0625 0  0.5 0.0625 0  0.53125 0.0625 0  0.5625 0.0625 0  0.59375 0.0625 0  0.625 0.0625 0  0.65625 0.0625 0  0.6875 0.0625 0  0.71875 0.0625 0  0.75 0.0625 0  0.78125 0.0625 0  0.8125 0.0625 0  0.84375 0.0625 0  0.875 0.0625 0  0.90625 0.0625 0  0.9375 0.0625 0  0.96875 0.0625 0  1 0.0625 0  0 0.09375 0  0.03125 0.09375 0  0.0625 0.09375 0  0.09375 0.09375 0  0.125 0.09375 0  0.15625 0.09375 0  0.1875 0.09375 0  0.21875 0.09375 0  0.25 0.09375 0  0.28125 0.09375 0  0.3125 0.09375 0  0.34375 0.09375 0  0.375 0.09375 0  0.40625 0.09375 0  0.4375 0.09375 0  0.46875 0.09375 0  0.5 0.09375 0  0.53125 0.09375 0  0.5625 0.09375 0  0.59375 0.09375 0  0.625 0.09375 0  0.65625 0.09375 0  0.6875 0.09375 0  0.71875 0.09375 0  0.75 0.09375 0  0.78125 0.09375 0  0.8125 0.09375 0  0.84375 0.09375 0  0.875 0.09375 0  0.90625 0.09375 0  0.9375 0.09375 0  0.96875 0.09375 0  1 0.09375 0  0 0.125 0  0.03125 0.125 0  0.0625 0.125 0  0.09375 0.125 0  0.125 0.125 0  0.15625 0.125 0  0.1875 0.125 0  0.21875 0.125 0  0.25 0.125 0  0.28125 0.125 0  0.3125 0.125 0  0.34375 0.125 0  0.375 0.125 0  0.40625 0.125 0  0.4375 0.125 0  0.46875 0.125 0  0.5 0.125 0  0.53125 0.125 0  0.5625 0.125 0  0.59375 0.125 0  0.625 0.125 0  0.65625 0.125 0  0.6875 0.125 0  0.71875 0.125 0  0.75 0.125 0  0.78125 0.125 0  0.8125 0.125 0  0.84375 0.125 0  0.875 0.125 0  0.90625 0.125 0  0.9375 0.125 0  0.96875 0.125 0  1 0.125 0  0 0.15625 0  0.03125 0.15625 0  0.0625 0.15625 0  0.09375 0.15625 0  0.125 0.15625 0  0.15625 0.15625 0  0.1875 0.15625 0  0.21875 0.15625 0  0.25 0.15625 0  0.28125 0.15625 0  0.3125 0.15625 0  0.34375 0.15625 0  0.375 0.15625 0  0.40625 0.15625 0  0.4375 0.15625 0  0.46875 0.15625 0  0.5 0.15625 0  0.53125 0.15625 0  0.5625 0.15625 0  0.59375 0.15625 0  0.625 0.15625 0  0.65625 0.15625 0  0.6875 0.15625 0  0.71875 0.15625 0  0.75 0.15625 0  0.78125 0.15625 0  0.8125 0.15625 0  0.84375 0.15625 0  0.875 0.15625 0  0.90625 0.15625 0  0.9375 0.15625 0  0.96875 0.15625 0  1 0.15625 0  0 0.1875 0  0.03125 0.1875 0  0.0625 0.1875 0  0.09375 0.1875 0  0.125 0.1875 0  0.15625 0.1875 0  0.1875 0.1875 0  0.21875 0.1875 0  0.25 0.1875 0  0.28125 0.1875 0  0.3125 0.1875 0  0.34375 0.1875 0  0.375 0.1875 0  0.40625 0.1875 0  0.4375 0.1875 0  0.46875 0.1875 0  0.5 0.1875 0  0.53125 0.1875 0  0.5625 0.1875 0  0.59375 0.1875 0  0.625 0.1875 0  0.65625 0.1875 0  0.6875 0.1875 0  0.71875 0.1875 0  0.75 0.1875 0  0.78125 0.1875 0  0.8125 0.1875 0  0.84375 0.1875 0  0.875 0.1875 0  0.90625 0.1875 0  0.9375 0.1875 0  0.96875 0.1875 0  1 0.1875 0  0 0.21875 0  0.03125 0.21875 0  0.0625 0.21875 0  0.09375 0.21875 0  0.125 0.21875 0  0.15625 0.21875 0  0.1875 0.21875 0  0.21875 0.21875 0  0.25 0.21875 0  0.28125 0.21875 0  0.3125 0.21875 0  0.34375 0.21875 0  0.375 0.21875 0  0.40625 0.21875 0  0.4375 0.21875 0  0.46875 0.21875 0  0.5 0.21875 0  0.53125 0.21875 0  0.5625 0.21875 0  0.59375 0.21875 0  0.625 0.21875 0  0.65625 0.21875 0  0.6875 0.21875 0  0.71875 0.21875 0  0.75 0.21875 0  0.78125 0.21875 0  0.8125 0.21875 0  0.84375 0.21875 0  0.875 0.21875 0  0.90625 0.21875 0  0.9375 0.21875 0  0.96875 0.21875 0  1 0.21875 0  0 0.25 0  0.03125 0.25 0  0.0625 0.25 0  0.09375 0.25 0  0.125 0.25 0  0.15625 0.25 0  0.1875 0.25 0  0.21875 0.25 0  0.25 0.25 0  0.28125 0.25 0  0.3125 0.25 0  0.34375 0.25 0  0.375 0.25 0  0.40625 0.25 0  0.4375 0.25 0  0.46875 0.25 0  0.5 0.25 0  0.53125 0.25 0  0.5625 0.25 0  0.59375 0.25 0  0.625 0.25 0  0.65625 0.25 0  0.6875 0.25 0  0.71875 0.25 0  0.75 0.25 0  0.78125 0.25 0  0.8125 0.25 0  0.84375 0.25 0  0.875 0.25 0  0.90625 0.25 0  0.9375 0.25 0  0.96875 0.25 0  1 0.25 0  0 0.28125 0  0.03125 0.28125 0  0.0625 0.28125 0  0.09375 0.28125 0  0.125 0.28125 0  0.15625 0.28125 0  0.1875 0.28125 0  0.21875 0.28125 0  0.25 0.28125 0  0.28125 0.28125 0  0.3125 0.28125 0  0.34375 0.28125 0  0.375 0.28125 0  0.40625 0.28125 0  0.4375 0.28125 0  0.46875 0.28125 0  0.5 0.28125 0  0.53125 0.28125 0  0.5625 0.28125 0  0.59375 0.28125 0  0.625 0.28125 0  0.65625 0.28125 0  0.6875 0.28125 0  0.71875 0.28125 0  0.75 0.28125 0  0.78125 0.28125 0  0.8125 0.28125 0  0.84375 0.28125 0  0.875 0.28125 0  0.90625 0.28125 0  0.9375 0.28125 0  0.96875 0.28125 0  1 0.28125 0  0 0.3125 0  0.03125 0.3125 0  0.0625 0.3125 0  0.09375 0.3125 0  0.125 0.3125 0  0.15625 0.3125 0  0.1875 0.3125 0  0.21875 0.3125 0  0.25 0.3125 0  0.28125 0.3125 0  0.3125 0.3125 0  0.34375 0.3125 0  0.375 0.3125 0  0.40625 0.3125 0  0.4375 0.3125 0  0.46875 0.3125 0  0.5 0.3125 0  0.53125 0.3125 0  0.5625 0.3125 0  0.59375 0.3125 0  0.625 0.3125 0  0.65625 0.3125 0  0.6875 0.3125 0  0.71875 0.3125 0  0.75 0.3125 0  0.78125 0.3125 0  0.8125 0.3125 0  0.84375 0.3125 0  0.875 0.3125 0  0.90625 0.3125 0  0.9375 0.3125 0  0.96875 0.3125 0  1 0.3125 0  0 0.34375 0  0.03125 0.34375 0  0.0625 0.34375 0  0.09375 0.34375 0  0.125 0.34375 0  0.15625 0.34375 0  0.1875 0.34375 0  0.21875 0.34375 0  0.25 0.34375 0  0.28125 0.34375 0  0.3125 0.34375 0  0.34375 0.34375 0  0.375 0.34375 0  0.40625 0.34375 0  0.4375 0.34375 0  0.46875 0.34375 0  0.5 0.34375 0  0.53125 0.34375 0  0.5625 0.34375 0  0.59375 0.34375 0  0.625 0.34375 0  0.65625 0.34375 0  0.6875 0.34375 0  0.71875 0.34375 0  0.75 0.34375 0  0.78125 0.34375 0  0.8125 0.34375 0  0.84375 0.34375 0  0.875 0.34375 0  0.90625 0.34375 0  0.9375 0.34375 0  0.96875 0.34375 0  1 0.34375 0  0 0.375 0  0.03125 0.375 0  0.0625 0.375 0  0.09375 0.375 0  0.125 0.375 0  0.15625 0.375 0  0.1875 0.375 0  0.21875 0.375 0  0.25 0.375 0  0.28125 0.375 0  0.3125 0.375 0  0.34375 0.375 0  0.375 0.375 0  0.40625 0.375 0  0.4375 0.375 0  0.46875 0.375 0  0.5 0.375 0  0.53125 0.375 0  0.5625 0.375 0  0.59375 0.375 0  0.625 0.375 0  0.65625 0.375 0  0.6875 0.375 0  0.71875 0.375 0  0.75 0.375 0  0.78125 0.375 0  0.8125 0.375 0  0.84375 0.375 0  0.875 0.375 0  0.90625 0.375 0  0.9375 0.375 0  0.96875 0.375 0  1 0.375 0  0 0.40625 0  0.03125 0.40625 0  0.0625 0.40625 0  0.09375 0.40625 0  0.125 0.40625 0  0.15625 0.40625 0  0.1875 0.40625 0  0.21875 0.40625 0  0.25 0.40625 0  0.28125 0.40625 0  0.3125 0.40625 0  0.34375 0.40625 0  0.375 0.40625 0  0.40625 0.40625 0  0.4375 0.40625 0  0.46875 0.40625 0  0.5 0.40625 0  0.53125 0.40625 0  0.5625 0.40625 0  0.59375 0.40625 0  0.625 0.40625 0  0.65625 0.40625 0  0.6875 0.40625 0  0.71875 0.40625 0  0.75 0.40625 0  0.78125 0.40625 0  0.8125 0.40625 0  0.84375 0.40625 0  0.875 0.40625 0  0.90625 0.40625 0  0.9375 0.40625 0  0.96875 0.40625 0  1 0.40625 0  0 0.4375 0  0.03125 0.4375 0  0.0625 0.4375 0  0.09375 0.4375 0  0.125 0.4375 0  0.15625 0.4375 0  0.1875 0.4375 0  0.21875 0.4375 0  0.25 0.4375 0  0.28125 0.4375 0  0.3125 0.4375 0  0.34375 0.4375 0  0.375 0.4375 0  0.40625 0.4375 0  0.4375 0.4375 0  0.46875 0.4375 0  0.5 0.4375 0  0.53125 0.4375 0  0.5625 0.4375 0  0.59375 0.4375 0  0.625 0.4375 0  0.65625 0.4375 0  0.6875 0.4375 0  0.71875 0.4375 0  0.75 0.4375 0  0.78125 0.4375 0  0.8125 0.4375 0  0.84375 0.4375 0  0.875 0.4375 0  0.90625 0.4375 0  0.9375 0.4375 0  0.96875 0.4375 0  1 0.4375 0  0 0.46875 0  0.03125 0.46875 0  0.0625 0.46875 0  0.09375 0.46875 0  0.125 0.46875 0  0.15625 0.46875 0  0.1875 0.46875 0  0.21875 0.46875 0  0.25 0.46875 0  0.28125 0.46875 0  0.3125 0.46875 0  0.34375 0.46875 0  0.375 0.46875 0  0.40625 0.46875 0  0.4375 0.46875 0  0.46875 0.46875 0  0.5 0.46875 0  0.53125 0.46875 0  0.5625 0.46875 0  0.59375 0.46875 0  0.625 0.46875 0  0.65625 0.46875 0  0.6875 0.46875 0  0.71875 0.46875 0  0.75 0.46875 0  0.78125 0.46875 0  0.8125 0.46875 0  0.84375 0.46875 0  0.875 0.46875 0  0.90625 0.46875 0  0.9375 0.46875 0  0.96875 0.46875 0  1 0.46875 0  0 0.5 0  0.03125 0.5 0  0.0625 0.5 0  0.09375 0.5 0  0.125 0.5 0  0.15625 0.5 0  0.1875 0.5 0  0.21875 0.5 0  0.25 0.5 0  0.28125 0.5 0  0.3125 0.5 0  0.34375 0.5 0  0.375 0.5 0  0.40625 0.5 0  0.4375 0.5 0  0.46875 0.5 0  0.5 0.5 0  0.53125 0.5 0  0.5625 0.5 0  0.59375 0.5 0  0.625 0.5 0  0.65625 0.5 0  0.6875 0.5 0  0.71875 0.5 0  0.75 0.5 0  0.78125 0.5 0  0.8125 0.5 0  0.84375 0.5 0  0.875 0.5 0  0.90625 0.5 0  0.9375 0.5 0  0.96875 0.5 0  1 0.5 0  0 0.53125 0  0.03125 0.53125 0  0.0625 0.53125 0  0.09375 0.53125 0  0.125 0.53125 0  0.15625 0.53125 0  0.1875 0.53125 0  0.21875 0.53125 0  0.25 0.53125 0  0.28125 0.53125 0  0.3125 0.53125 0  0.34375 0.53125 0  0.375 0.53125 0  0.40625 0.53125 0  0.4375 0.53125 0  0.46875 0.53125 0  0.5 0.53125 0  0.53125 0.53125 0  0.5625 0.53125 0  0.59375 0.53125 0  0.625 0.53125 0  0.65625 0.53125 0  0.6875 0.53125 0  0.71875 0.53125 0  0.75 0.53125 0  0.78125 0.531
[...]
<PointData  Scalars="phi"> 
<DataArray  type="Float64"  Name="phi"  format="ascii">0.0000000000000000e+00  0.0000000000000000e+00  0.0000000000000000e+00  0.0000000000000000e+00  0.0000000000000000e+00  0.0000000000000000e+00  0.0000000000000000e+00  0.0000000000000000e+00  0.0000000000000000e+00  0.0000000000000000e+00  0.0000000000000000e+00  0.0000000000000000e+00  0.0000000000000000e+00  0.0000000000000000e+00  0.0000000000000000e+00  0.0000000000000000e+00  0.0000000000000000e+00  0.0000000000000000e+00  0.0000000000000000e+00  0.0000000000000000e+00  0.0000000000000000e+00  0.0000000000000000e+00  0.0000000000000000e+00  0.0000000000000000e+00  0.0000000000000000e+00  0.0000000000000000e+00  0.0000000000000000e+00  0.0000000000000000e+00  0.0000000000000000e+00  0.0000000000000000e+00  0.0000000000000000e+00  0.0000000000000000e+00  0.0000000000000000e+00  0.0000000000000000e+00  -2.4519475143408222e-02  -4.8353382128446330e-02  -7.0973440501739524e-02  -9.1870077526860119e-02  -1.1058122148550426e-01  -1.2671142791699569e-01  -1.3994592141460860e-01  -1.5006069421227572e-01  -1.5692887553970286e-01  -1.6052337606450298e-01  -1.6091582623860351e-01  -1.5827191714232236e-01  -1.5284336624390649e-01  -1.4495684718093410e-01  -1.3500033129557132e-01  -1.2340738237384738e-01  -1.1064002006647938e-01  -9.7170818411305815e-02  -8.3464931516541344e-02  -6.9962737694274524e-02  -5.7063766138038326e-02  -4.5112517658676313e-02  -3.4386715076694649e-02  -2.5088422590122707e-02  -1.7338360589377766e-02  -1.1173617474084730e-02  -6.5488281421237481e-03  -3.3407556469034357e-03  -1.3560845457231173e-03  -3.4212003602441447e-04  -3.7646336550280794e-15  0.0000000000000000e+00  0.0000000000000000e+00  -4.8353382128446219e-02  -9.5410165355043125e-02  -1.4008312768426490e-01  -1.8134855235946357e-01  -2.1828493723857031e-01  -2.5010578762794722e-01  -2.7618591474858606e-01  -2.9608096224165725e-01  -3.0953986332460992e-01  -3.1651001305988047e-01  -3.1713511658239107e-01  -3.1174590032029043e-01  -3.0084411653312598e-01  -2.8508051021715930e-01  -2.6522763639402314e-01  -2.4214860364986168e-01  -2.1676296785077379e-01  -1.9001110180645064e-01  -1.6281841801075125e-01  -1.3606082031325964e-01  -1.1053270645829524e-01  -8.6918738945480967e-02  -6.5770450687925447e-02  -4.7488560371172786e-02  -3.2311647766278179e-02  -2.0311590404093530e-02  -1.1395899951742727e-02  -5.3168301934492911e-03  -1.6868703328251679e-03  -1.4746496487645192e-14  3.4212003600950762e-04  0.0000000000000000e+00  0.0000000000000000e+00  -7.0973440501739080e-02  -1.4008312768426437e-01  -2.0569447913004085e-01  -2.6627977269432579e-01  -3.2046912722863841e-01  -3.6709594780000387e-01  -4.0523450865097271e-01  -4.3422828918396239e-01  -4.5370816204375514e-01  -4.6359991177426041e-01  -4.6412093771974750e-01  -4.5576637943902953e-01  -4.3928528569887371e-01  -4.1564781267227058e-01  -3.8600476721217586e-01  -3.5164109284034073e-01  -3.1392511765034525e-01  -2.7425553564242444e-01  -2.3400816995803372e-01  -1.9448456498363842e-01  -1.5686437437412307e-01  -1.2216335681133891e-01  -9.1198566809331055e-02  -6.4562042857091939e-02  -4.2603960780745673e-02  -2.5425849506058099e-02  -1.2884074004788405e-02  -4.6033916997750713e-03  -3.1913280180794994e-14  1.6868703327817718e-03  1.3560845457011733e-03  0.0000000000000000e+00  0.0000000000000000e+00  -9.1870077526859037e-02  -1.8134855235946185e-01  -2.6627977269432423e-01  -3.4465413804548373e-01  -4.1467336513622527e-01  -4.7480872264922935e-01  -5.2384949065003150e-01  -5.6093966541827789e-01  -5.8560155021943638e-01  -5.9774543194334528e-01  -5.9766508633630466e-01  -5.8601939047836493e-01  -5.6380084161183375e-01  -5.3229227046980854e-01  -4.9301347717742872e-01  -4.4765989181256727e-01  -3.9803565531682561e-01  -3.4598371822661766e-01  -2.9331565681691962e-01  -2.4174390477598914e-01  -1.9281899354909621e-01  -1.4787419011232411e-01  -1.0797962512621463e-01  -7.3907628679377529e-02  -4.6110549770804823e-02  -2.4711846442578261e-02  -9.5107150824241468e-03  -5.3610432724917856e-14  4.6033916996923267e-03  5.3168301933930098e-03  3.3407556468749650e-03  0.0000000000000000e+00  0.0000000000000000e+00  -1.1058122148550212e-01  -2.1828493723856668e-01  -3.2046912722863430e-01  -4.1467336513622216e-01  -4.9869878698556575e-01  -5.7067905899856120e-01  -6.2913937907993134e-01  -6.7304116557858717e-01  -7.0181074015115619e-01  -7.1535097994356023e-01  -7.1403558891787955e-01  -6.9868630830024991e-01  -6.7053403523048649e-01  -6.3116542650400098e-01  -5.8245710964929842e-01  -5.2650008649569435e-01  -4.6551727749156063e-01  -4.0177740457955130e-01  -3.3750853695218519e-01  -2.7481462273854151e-01  -2.1559820076659930e-01  -1.6149223507977373e-01  -1.1380365065822531e-01  -7.3470685948120479e-02  -4.1035634273372555e-02  -1.6633943026613775e-02  -7.7713617594533468e-14  9.5107150822950123e-03  1.2884074004688698e-02  1.1395899951674881e-02  6.5488281420894145e-03  0.0000000000000000e+00  0.0000000000000000e+00  -1.2671142791699211e-01  -2.5010578762794078e-01  -3.6709594779999583e-01  -4.7480872264922142e-01  -5.7067905899855598e-01  -6.5253328760476015e-01  -7.1865819313376589e-01  -7.6785325128908388e-01  -7.9946407199573255e-01  -8.1339584135390663e-01  -8.1010633959801492e-01  -7.9057890099902206e-01  -7.5627644847396192e-01  -7.0907845424668170e-01  -6.5120332254468505e-01  -5.8511923735642468e-01  -5.1344694732396334e-01  -4.3885825479823648e-01  -3.6397412585398453e-01  -2.9126633708463379e-01  -2.2296642347851536e-01  -1.6098539559834107e-01  -1.0684726517989759e-01  -6.1638872775668256e-02  -2.5977870297791139e-02  -1.0181748121518862e-13  1.6633943026435786e-02  2.4711846442430269e-02  2.5425849505943753e-02  2.0311590404015690e-02  1.1173617474045328e-02  0.0000000000000000e+00  0.0000000000000000e+00  -1.3994592141460299e-01  -2.7618591474857568e-01  -4.0523450865095911e-01  -5.2384949065001685e-01  -6.2913937907991824e-01  -7.1865819313375756e-01  -7.9048393806826189e-01  -8.4327785911395359e-01  -8.7632226553827608e-01  -8.8953556171574455e-01  -8.8346400514157852e-01  -8.5925060665344621e-01  -8.1858246217115282e-01  -7.6361862580188089e-01  -6.9690137083394021e-01  -6.2125431050471547e-01  -5.3967134103934455e-01  -4.5520070687315228e-01  -3.7082865952663324e-01  -2.8936718094128722e-01  -2.1335006943627366e-01  -1.4494134862877517e-01  -8.5859469828973203e-02  -3.7320155556113621e-02  -1.2346606576882687e-13  2.5977870297566746e-02  4.1035634273176205e-02  4.6110549770641412e-02  4.2603960780619329e-02  3.2311647766192116e-02  1.7338360589334183e-02  0.0000000000000000e+00  0.0000000000000000e+00  -1.5006069421226761e-01  -2.9608096224164204e-01  -4.3422828918394174e-01  -5.6093966541825424e-01  -6.7304116557856375e-01  -7.6785325128906390e-01  -8.4327785911394160e-01  -8.9786403823328076e-01  -9.3084971955244111e-01  -9.4217811445692190e-01  -9.3248821591835629e-01  -9.0307986702782705e-01  -8.5585483348322722e-01  -7.9323622998418863e-01  -7.1806947129283727e-01  -6.3350861587106855e-01  -5.4289251715054920e-01  -4.4961557395685692e-01  -3.5699806321429395e-01  -2.6816103768238053e-01  -1.8591057934722474e-01  -1.1263582278912199e-01  -5.0224617012908729e-02  -1.4032822810683970e-13  3.7320155555850103e-02  6.1638872775428385e-02  7.3470685947910286e-02  7.3907628679202420e-02  6.4562042856956436e-02  4.7488560371080422e-02  2.5088422590075918e-02  0.0000000000000000e+00  0.0000000000000000e+00  -1.5692887553969173e-01  -3.0953986332458883e-01  -4.5370816204372599e-01  -5.8560155021940186e-01  -7.0181074015111977e-01  -7.9946407199569824e-01  -8.7632226553824877e-01  -9.3084971955242524e-01  -9.6225973717182023e-01  -9.7053205044725233e-01  -9.5640207633889651e-01  -9.2132241683326899e-01  -8.6739817510924899e-01  -7.9729865669205802e-01  -7.1414892108536776e-01  -6.2140541122985327e-01  -5.2272048628883305e-01  -4.2180109498089546e-01  -3.2226703638329557e-01  -2.2751425498007061e-01  -1.4058840693561608e-01  -6.4073523392170151e-02  -1.5045175265223907e-13  5.0224617012617684e-02  8.5859469828699256e-02  1.0684726517964777e-01  1.1380365065800600e-01  1.0797962512603168e-01  9.1198566809189363e-02  6.5770450687828802e-02  3.4386715076645660e-02  0.0000000000000000e+00  0.0000000000000000e+00  -1.6052337606448852e-01  -3.1651001305985271e-01  -4.6359991177422150e-01  -5.9774543194329832e-01  -7.1535097994350894e-01  -8.1339584135385556e-01  -8.8953556171569836e-01  -9.4217811445688582e-01  -9.7053205044723179e-01  -9.7462489065457869e-01  -9.5529115898947459e-01  -9.1413061151619845e-01  -8.5343835529089396e-01  -7.7610962100837333e-01  -6.8552291710019841e-01  -5.8540611193957559e-01  -4.7969063402609657e-01  -3.7235942289326590e-01  -2.6729448916530107e-01  -1.6812994219755667e-01  -7.8116118249051986e-02  -1.5241256474795984e-13  6.4073523391866644e-02  1.1263582278882733e-01  1.4494134862849700e-01  1.6098539559808675e-01  1.6149223507955010e-01  1.4787419011213726e-01  1.2216335681119402e-01  8.6918738945382046e-02  4.5112517658626158e-02  0.0000000000000000e+00  0.0000000000000000e+00  -1.6091582623858527e-01  -3.1713511658235588e-01  -4.6412093771969776e-01  -5.9766508633624360e-01  -7.1403558891781138e-01  -8.1010633959794420e-01  -8.8346400514151080e-01  -9.3248821591829711e-01  -9.5640207633885188e-01  -9.5529115898945016e-01  -9.3009034934998192e-01  -8.8253913542155882e-01  -8.1510714098562143e-01  -7.3089283585446374e-01  -6.3349937753785279e-01  -5.2689240694002137e-01  -4.1524530268467519e-01  -3.0277786832476605e-01  -1.9359466610317178e-01  -9.1529211031899177e-02  -1.4545805751638747e-13  7.8116118248753183e-02  1.4058840693531693e-01  1.8591057934693306e-01  2.1335006943599732e-01  2.2296642347826195e-01  2.1559820076637592e-01  1.9281899354890925e-01  1.5686437437397791e-01  1.1053270645819605e-01  5.7063766137987998e-02  0.0000000000000000e+00  0.0000000000000000e+00  -1.5827191714230007e-01  -3.1174590032024718e-01  -4.5576637943896781e-01  -5.8601939047828844e-01  -6.9868630830016298e-01  -7.9057890099892980e-01  -8.5925060665335473e-01  -9.0307986702774212e-01  -9.2132241683319693e-01  -9.1413061151614539e-01  -8.8253913542153006e-01  -8.2841771675980402e-01  -7.5439273629074000e-01  -6.6374080425174631e-01  -5.6025844895351995e-01  -4.4811296945934620e-01  -3.3168021890002886e-01  -2.1537557684440384e-01  -1.0348461991755793e-01  -1.2953206993475807e-13  9.1529211031623148e-02  1.6812994219727073e-01  2.2751425497978245e-01  2.6816103768209798e-01  2.8936718094101843e-01  2.9126633708438643e-01  2.7481462273832280e-01  2.4174390477580571e-01  1.9448456498349573e-01  1.3606082031316205e-01  6.9962737694224980e-02  0.0000000000000000e+00  0.0000000000000000e+00  -1.5284336624387995e-01  -3.0084411653307430e-01  -4.3928528569879954e-01  -5.6380084161174082e-01  -6.7053403523037969e-01  -7.5627644847384690e-01  -8.1858246217103570e-01  -8.5585483348311431e-01  -8.6739817510914730e-01  -8.5343835529080980e-01  -8.1510714098556059e-01  -7.5439273629070747e-01  -6.7405817291201320e-01  -5.7753073879966887e-01  -4.6876673759584953e-01  -3.5209681261143455e-01  -2.3205780845327953e-01  -1.1321765273654275e-01  -1.0532685766783854e-13  1.0348461991732205e-01  1.9359466610291681e-01  2.6729448916503412e-01  3.2226703638302423e-01  3.5699806321402627e-01  3.7082865952637722e-01  3.6397412585374783e-01  3.3750853695197514e-01  2.9331565681674304e-01  2.3400816995789614e-01  1.6281841801065700e-01  8.3464931516493451e-02  0.0000000000000000e+00  0.0000000000000000e+00  -1.4495684718090324e-01  -2.8508051021709901e-01  -4.1564781267218359e-01  -5.3229227046969907e-01  -6.3116542650387408e-01  -7.0907845424654314e-01  -7.6361862580173723e-01  -7.9323622998404675e-01  -7.9729865669192512e-01  -7.7610962100825631e-01  -7.3089283585436871e-01  -6.6374080425167881e-01  -5.7753073879963335e-01  -4.7581087532172089e-01  -3.6266158121209724e-01  -2.4253662315296307e-01  -1.2009071643987743e-01  -7.4224945414658952e-14  1.1321765273636239e-01  2.1537557684419639e-01  3.0277786832453757e-01  3.7235942289302315e-01  4.2180109498064600e-01  4.4961557395660867e-01  4.5520070687291336e-01  4.3885825479801449e-01  4.0177740457935368e-01  3.4598371822645102e-01  2.7425553564229421e-01  1.9001110180636133e-01  9.7170818411260351e-02  0.0000000000000000e+00  0.0000000000000000e+00  -1.3500033129553626e-01  -2.6522763639395447e-01  -3.8600476721207655e-01  -4.9301347717730282e-01  -5.8245710964915143e-01  -6.5120332254452318e-01  -6.9690137083377013e-01  -7.1806947129266607e-01  -7.1414892108520345e-01  -6.8552291710004776e-01  -6.3349937753772267e-01  -5.6025844895341603e-01  -4.6876673759577669e-01  -3.6266158121205966e-01  -2.4610982729102854e-01  -1.2364656168316768e-01  -3.8209189709861607e-14  1.2009071643976445e-01  2.3205780845313329e-01  3.3168021889985377e-01  4.1524530268447712e-01  4.7969063402588219e-01  5.2272048628860968e-01  5.4289251715032438e-01  5.3967134103912640e-01  5.1344694732375940e-01  4.6551727749137811e-01  3.9803565531667107e-01  3.1392511765022424e-01  2.1676296785069066e-01  1.1064002006643703e-01  0.0000000000000000e+00  0.0000000000000000e+00  -1.2340738237380836e-01  -2.4214860364978513e-01  -3.5164109284022965e-01  -4.4765989181242594e-01  -5.2650008649552849e-01  -5.8511923735624027e-01  -6.2125431050451985e-01  -6.3350861587086915e-01  -6.2140541122965798e-01  -5.8540611193939185e-01  -5.2689240693985617e-01  -4.4811296945920576e-01  -3.5209681261132408e-01  -2.4253662315288704e-01  -1.2364656168312892e-01  4.1679655643025207e-16  1.2364656168312971e-01  2.4253662315288776e-01  3.5209681261132475e-01  4.4811296945920620e-01  5.2689240693985684e-01  5.8540611193939263e-01  6.2140541122965898e-01  6.3350861587087026e-01  6.2125431050452096e-01  5.8511923735624127e-01  5.2650008649552937e-01  4.4765989181242688e-01  3.5164109284023043e-01  2.4214860364978574e-01  1.2340738237380866e-01  0.0000000000000000e+00  0.0000000000000000e+00  -1.1064002006643678e-01  -2.1676296785069010e-01  -3.1392511765022352e-01  -3.9803565531667018e-01  -4.6551727749137717e-01  -5.1344694732375840e-01  -5.3967134103912540e-01  -5.4289251715032338e-01  -5.2272048628860868e-01  -4.7969063402588130e-01  -4.1524530268447635e-01  -3.3168021889985300e-01  -2.3205780845313240e-01  -1.2009071643976363e-01  3.9023602225169089e-14  1.2364656168316848e-01  2.4610982729102926e-01  3.6266158121206027e-01  4.6876673759577714e-01  5.6025844895341614e-01  6.3349937753772290e-01  6.8552291710004865e-01  7.1414892108520478e-01  7.1806947129266729e-01  6.9690137083377113e-01  6.5120332254452407e-01  5.8245710964915265e-01  4.9301347717730387e-01  3.8600476721207744e-01  2.6522763639395508e-01  1.3500033129553657e-01  0.0000000000000000e+00  0.0000000000000000e+00  -9.7170818411260101e-02  -1.9001110180636083e-01  -2.7425553564229349e-01  -3.4598371822645013e-01  -4.0177740457935285e-01  -4.3885825479801355e-01  -4.5520070687291236e-01  -4.4961557395660778e-01  -4.2180109498064516e-01  -3.7235942289302226e-01  -3.0277786832453668e-01  -2.1537557684419550e-01  -1.1321765273636150e-01  7.5107633123666214e-14  1.2009071643987830e-01  2.4253662315296393e-01  3.6266158121209802e-01  4.7581087532172150e-01  5.7753073879963357e-01  6.6374080425167881e-01  7.3089283585436915e-01  7.7610962100825720e-01  7.9729865669192646e-01  7.9323622998404808e-01  7.6361862580173856e-01  7.0907845424654425e-01  6.3116542650387530e-01  5.3229227046970018e-01  4.1564781267218448e-01  2.8508051021709963e-01  1.4495684718090357e-01  0.0000000000000000e+00  0.0000000000000000e+00  -8.3464931516493202e-02  -1.6281841801065655e-01  -2.3400816995789550e-01  -2.9331565681674238e-01  -3.3750853695197447e-01  -3.6397412585374700e-01  -3.7082865952637628e-01  -3.5699806321402539e-01  -3.2226703638302345e-01  -2.6729448916503329e-01  -1.9359466610291604e-01  -1.0348461991732116e-01  1.0627034285290150e-13  1.1321765273654374e-01  2.3205780845328045e-01  3.5209681261143544e-01  4.6876673759585019e-01  5.7753073879966932e-01  6.7405817291201353e-01  7.5439273629070769e-01  8.1510714098556125e-01  8.5343835529081102e-01  8.6739817510914885e-01  8.5585483348311597e-01  8.1858246217103714e-01  7.5627644847384823e-01  6.7053403523038080e-01  5.6380084161174193e-01  4.3928528569880032e-01  3.0084411653307486e-01  1.5284336624388023e-01  0.0000000000000000e+00  0.0000000000000000e+00  -6.9962737694224758e-02  -1.3606082031316163e-01  -1.9448456498349517e-01  -2.4174390477580504e-01  -2.7481462273832213e-01  -2.9126633708438560e-01  -2.8936718094101754e-01  -2.6816103768209709e-01  -2.2751425497978151e-01  -1.6812994219726982e-01  -9.1529211031622204e-02  1.3050453475260564e-13  1.0348461991755895e-01  2.1537557684440481e-01  3.3168021890002980e-01  4.4811296945934709e-01  5.6025844895352050e-01  6.6374080425174664e-01  7.5439273629074044e-01  8.2841771675980436e-01  8.8253913542153084e-01  9.1413061151614672e-01  9.2132241683319882e-01  9.0307986702774401e-01  8.5925060665335629e-01  7.9057890099893113e-01  6.9868630830016398e-01  5.8601939047828933e-01  4.5576637943896858e-01  3.1174590032024774e-01  1.5827191714230038e-01  0.0000000000000000e+00  0.0000000000000000e+00  -5.7063766137987804e-02  -1.1053270645819570e-01  -1.5686437437397738e-01  -1.9281899354890861e-01  -2.1559820076637520e-01  -2.2296642347826118e-01  -2.1335006943599646e-01  -1.8591057934693217e-01  -1.4058840693531599e-01  -7.8116118248752212e-02  1.4643646735820901e-13  9.1529211031900204e-02  1.9359466610317291e-01  3.0277786832476716e-01  4.1524530268467619e-01  5.2689240694002226e-01  6.3349937753785357e-01  7.3089283585446452e-01  8.1510714098562231e-01  8.8253913542155993e-01  9.3009034934998325e-01  9.5529115898945172e-01  9.5640207633885388e-01  9.3248821591829945e-01  8.8346400514151258e-01  8.1010633959794565e-01  7.1403558891781227e-01  5.9766508633624427e-01  4.6412093771969831e-01  3.1713511658235638e-01  1.6091582623858558e-01  0.0000000000000000e+00  0.0000000000000000e+00  -4.5112517658625978e-02  -8.6918738945381713e-02  -1.2216335681119354e-01  -1.4787419011213668e-01  -1.6149223507954943e-01  -1.6098539559808600e-01  -1.4494134862849617e-01  -1.1263582278882645e-01  -6.4073523391865700e-02  1.5337483453582112e-13  7.8116118249052971e-02  1.6812994219755772e-01  2.6729448916530213e-01  3.7235942289326696e-01  4.7969063402609768e-01  5.8540611193957659e-01  6.8552291710019930e-01  7.7610962100837444e-01  8.5343835529089529e-01  9.1413061151619968e-01  9.5529115898947614e-01  9.7462489065458069e-01  9.7053205044723379e-01  9.4217811445688804e-01  8.8953556171570014e-01  8.1339584135385690e-01  7.1535097994350993e-01  5.9774543194329910e-01  4.6359991177422211e-01  3.1651001305985316e-01  1.6052337606448880e-01  0.0000000000000000e+00  0.0000000000000000e+00  -3.4386715076645501e-02  -6.5770450687828497e-02  -9.1198566809188919e-02  -1.0797962512603114e-01  -1.1380365065800541e-01  -1.0684726517964704e-01  -8.5859469828698493e-02  -5.0224617012616837e-02  1.5133765571995070e-13  6.4073523392171081e-02  1.4058840693561703e-01  2.2751425498007163e-01  3.2226703638329662e-01  4.2180109498089646e-01  5.2272048628883405e-01  6.2140541122985427e-01  7.1414892108536909e-01  7.9729865669205924e-01  8.6739817510925055e-01  9.2132241683327043e-01  9.5640207633889807e-01  9.7053205044725388e-01  9.6225973717182200e-01  9.3084971955242690e-01  8.7632226553825032e-01  7.9946407199569958e-01  7.0181074015112088e-01  5.8560155021940252e-01  4.5370816204372638e-01  3.0953986332458927e-01  1.5692887553969206e-01  0.0000000000000000e+00  0.0000000000000000e+00  -2.5088422590075782e-02  -4.7488560371080166e-02  -6.4562042856956048e-02  -7.3907628679201948e-02  -7.3470685947909731e-02  -6.1638872775427747e-02  -3.7320155555849402e-02  1.4109723635276334e-13  5.0224617012909534e-02  1.1263582278912285e-01  1.8591057934722563e-01  2.6816103768238142e-01  3.5699806321429506e-01  4.4961557395685786e-01  5.4289251715054998e-01  6.3350861587106944e-01  7.1806947129283816e-01  7.9323622998418963