<?xml version="1.0"?>
<VTKFile type="UnstructuredGrid"  version="0.1"  >
<UnstructuredGrid>
<Piece  NumberOfPoints="1089" NumberOfCells="2048">
<Points>
<DataArray  type="Float64"  NumberOfComponents="3"  format="ascii">0 0 0  0.03125 0 0  0.0625 0 0  0.09375 0 0  0.125 0 0  0.15625 0 0  0.1875 0 0  0.21875 0 0  0.25 0 0  0.28125 0 0  0.3125 0 0  0.34375 0 0  0.375 0 0  0.40625 0 0  0.4375 0 0  0.46875 0 0  0.5 0 0  0.53125 0 0  0.5625 0 0  0.59375 0 0  0.625 0 0  0.65625 0 0  0.6875 0 0  0.71875 0 0  0.75 0 0  0.78125 0 0  0.8125 0 0  0.84375 0 0  0.875 0 0  0.90625 0 0  0.9375 0 0  0.96875 0 0  1 0 0  0 0.03125 0  0.03125 0.03125 0  0.0625 0.03125 0  0.09375 0.03125 0  0.125 0.03125 0  0.15625 0.03125 0  0.1875 0.03125 0  0.21875 0.03125 0  0.25 0.03125 0  0.28125 0.03125 0  0.3125 0.03125 0  0.34375 0.03125 0  0.375 0.03125 0  0.40625 0.03125 0  0.4375 0.03125 0  0.46875 0.03125 0  0.5 0.03125 0  0.53125 0.03125 0  0.5625 0.03125 0  0.59375 0.03125 0  0.625 0.03125 0  0.65625 0.03125 0  0.6875 0.03125 0  0.71875 0.03125 0  0.75 0.03125 0  0.78125 0.03125 0  0.8125 0.03125 0  0.84375 0.03125 0  0.875 0.03125 0  0.90625 0.03125 0  0.9375 0.03125 0  0.96875 0.03125 0  1 0.03125 0  0 0.0625 0  0.03125 0.0625 0  0.0625 0.0625 0  0.09375 0.0625 0  0.125 0.0625 0  0.15625 0.0625 0  0.1875 0.0625 0  0.21875 0.0625 0  0.25 0.0625 0  0.28125 0.0625 0  0.3125 0.0625 0  0.34375 0.0625 0  0.375 0.0625 0  0.40625 0.0625 0  0.4375 0.0625 0  0.46875 0.0625 0  0.5 0.0625 0  0.53125 0.0625 0  0.5625 0.0625 0  0.59375 0.0625 0  0.625 0.0625 0  0.65625 0.0625 0  0.6875 0.0625 0  0.71875 0.0625 0  0.75 0.0625 0  0.78125 0.0625 0  0.8125 0.0625 0  0.84375 0.0625 0  0.875 0.0625 0  0.90625 0.0625 0  0.9375 0.0625 0  0.96875 0.0625 0  1 0.0625 0  0 0.09375 0  0.03125 0.09375 0  0.0625 0.09375 0  0.09375 0.09375 0  0.125 0.09375 0  0.15625 0.09375 0  0.1875 0.09375 0  0.21875 0.09375 0  0.25 0.09375 0  0.28125 0.09375 0  0.3125 0.09375 0  0.34375 0.09375 0  0.375 0.09375 0  0.40625 0.09375 0  0.4375 0.09375 0  0.46875 0.09375 0  0.5 0.09375 0  0.53125 0.09375 0  0.5625 0.09375 0  0.59375 0.09375 0  0.625 0.09375 0  0.65625 0.09375 0  0.6875 0.09375 0  0.71875 0.09375 0  0.75 0.09375 0  0.78125 0.09375 0  0.8125 0.09375 0  0.84375 0.09375 0  0.875 0.09375 0  0.90625 0.09375 0  0.9375 0.09375 0  0.96875 0.09375 0  1 0.09375 0  0 0.125 0  0.03125 0.125 0  0.0625 0.125 0  0.09375 0.125 0  0.125 0.125 0  0.15625 0.125 0  0.1875 0.125 0  0.21875 0.125 0  0.25 0.125 0  0.28125 0.125 0  0.3125 0.125 0  0.34375 0.125 0  0.375 0.125 0  0.40625 0.125 0  0.4375 0.125 0  0.46875 0.125 0  0.5 0.125 0  0.53125 0.125 0  0.5625 0.125 0  0.59375 0.125 0  0.625 0.125 0  0.65625 0.125 0  0.6875 0.125 0  0.71875 0.125 0  0.75 0.125 0  0.78125 0.125 0  0.8125 0.125 0  0.84375 0.125 0  0.875 0.125 0  0.90625 0.125 0  0.9375 0.125 0  0.96875 0.125 0  1 0.125 0  0 0.15625 0  0.03125 0.15625 0  0.0625 0.15625 0  0.09375 0.15625 0  0.125 0.15625 0  0.15625 0.15625 0  0.1875 0.15625 0  0.21875 0.15625 0  0.25 0.15625 0  0.28125 0.15625 0  0.3125 0.15625 0  0.34375 0.15625 0  0.375 0.15625 0  0.40625 0.15625 0  0.4375 0.15625 0  0.46875 0.15625 0  0.5 0.15625 0  0.53125 0.15625 0  0.5625 0.15625 0  0.59375 0.15625 0  0.625 0.15625 0  0.65625 0.15625 0  0.6875 0.15625 0  0.71875 0.15625 0  0.75 0.15625 0  0.78125 0.15625 0  0.8125 0.15625 0  0.84375 0.15625 0  0.875 0.15625 0  0.90625 0.15625 0  0.9375 0.15625 0  0.96875 0.15625 0  1 0.15625 0  0 0.1875 0  0.03125 0.1875 0  0.0625 0.1875 0  0.09375 0.1875 0  0.125 0.1875 0  0.15625 0.1875 0  0.1875 0.1875 0  0.21875 0.1875 0  0.25 0.1875 0  0.28125 0.1875 0  0.3125 0.1875 0  0.34375 0.1875 0  0.375 0.1875 0  0.40625 0.1875 0  0.4375 0.1875 0  0.46875 0.1875 0  0.5 0.1875 0  0.53125 0.1875 0  0.5625 0.1875 0  0.59375 0.1875 0  0.625 0.1875 0  0.65625 0.1875 0  0.6875 0.1875 0  0.71875 0.1875 0  0.75 0.1875 0  0.78125 0.1875 0  0.8125 0.1875 0  0.84375 0.1875 0  0.875 0.1875 0  0.90625 0.1875 0  0.9375 0.1875 0  0.96875 0.1875 0  1 0.1875 0  0 0.21875 0  0.03125 0.21875 0  0.0625 0.21875 0  0.09375 0.21875 0  0.125 0.21875 0  0.15625 0.21875 0  0.1875 0.21875 0  0.21875 0.21875 0  0.25 0.21875 0  0.28125 0.21875 0  0.3125 0.21875 0  0.34375 0.21875 0  0.375 0.21875 0  0.40625 0.21875 0  0.4375 0.21875 0  0.46875 0.21875 0  0.5 0.21875 0  0.53125 0.21875 0  0.5625 0.21875 0  0.59375 0.21875 0  0.625 0.21875 0  0.65625 0.21875 0  0.6875 0.21875 0  0.71875 0.21875 0  0.75 0.21875 0  0.78125 0.21875 0  0.8125 0.21875 0  0.84375 0.21875 0  0.875 0.21875 0  0.90625 0.21875 0  0.9375 0.21875 0  0.96875 0.21875 0  1 0.21875 0  0 0.25 0  0.03125 0.25 0  0.0625 0.25 0  0.09375 0.25 0  0.125 0.25 0  0.15625 0.25 0  0.1875 0.25 0  0.21875 0.25 0  0.25 0.25 0  0.28125 0.25 0  0.3125 0.25 0  0.34375 0.25 0  0.375 0.25 0  0.40625 0.25 0  0.4375 0.25 0  0.46875 0.25 0  0.5 0.25 0  0.53125 0.25 0  0.5625 0.25 0  0.59375 0.25 0  0.625 0.25 0  0.65625 0.25 0  0.6875 0.25 0  0.71875 0.25 0  0.75 0.25 0  0.78125 0.25 0  0.8125 0.25 0  0.84375 0.25 0  0.875 0.25 0  0.90625 0.25 0  0.9375 0.25 0  0.96875 0.25 0  1 0.25 0  0 0.28125 0  0.03125 0.28125 0  0.0625 0.28125 0  0.09375 0.28125 0  0.125 0.28125 0  0.15625 0.28125 0  0.1875 0.28125 0  0.21875 0.28125 0  0.25 0.28125 0  0.28125 0.28125 0  0.3125 0.28125 0  0.34375 0.28125 0  0.375 0.28125 0  0.40625 0.28125 0  0.4375 0.28125 0  0.46875 0.28125 0  0.5 0.28125 0  0.53125 0.28125 0  0.5625 0.28125 0  0.59375 0.28125 0  0.625 0.28125 0  0.65625 0.28125 0  0.6875 0.28125 0  0.71875 0.28125 0  0.75 0.28125 0  0.78125 0.28125 0  0.8125 0.28125 0  0.84375 0.28125 0  0.875 0.28125 0  0.90625 0.28125 0  0.9375 0.28125 0  0.96875 0.28125 0  1 0.28125 0  0 0.3125 0  0.03125 0.3125 0  0.0625 0.3125 0  0.09375 0.3125 0  0.125 0.3125 0  0.15625 0.3125 0  0.1875 0.3125 0  0.21875 0.3125 0  0.25 0.3125 0  0.28125 0.3125 0  0.3125 0.3125 0  0.34375 0.3125 0  0.375 0.3125 0  0.40625 0.3125 0  0.4375 0.3125 0  0.46875 0.3125 0  0.5 0.3125 0  0.53125 0.3125 0  0.5625 0.3125 0  0.59375 0.3125 0  0.625 0.3125 0  0.65625 0.3125 0  0.6875 0.3125 0  0.71875 0.3125 0  0.75 0.3125 0  0.78125 0.3125 0  0.8125 0.3125 0  0.84375 0.3125 0  0.875 0.3125 0  0.90625 0.3125 0  0.9375 0.3125 0  0.96875 0.3125 0  1 0.3125 0  0 0.34375 0  0.03125 0.34375 0  0.0625 0.34375 0  0.09375 0.34375 0  0.125 0.34375 0  0.15625 0.34375 0  0.1875 0.34375 0  0.21875 0.34375 0  0.25 0.34375 0  0.28125 0.34375 0  0.3125 0.34375 0  0.34375 0.34375 0  0.375 0.34375 0  0.40625 0.34375 0  0.4375 0.34375 0  0.46875 0.34375 0  0.5 0.34375 0  0.53125 0.34375 0  0.5625 0.34375 0  0.59375 0.34375 0  0.625 0.34375 0  0.65625 0.34375 0  0.6875 0.34375 0  0.71875 0.34375 0  0.75 0.34375 0  0.78125 0.34375 0  0.8125 0.34375 0  0.84375 0.34375 0  0.875 0.34375 0  0.90625 0.34375 0  0.9375 0.34375 0  0.96875 0.34375 0  1 0.34375 0  0 0.375 0  0.03125 0.375 0  0.0625 0.375 0  0.09375 0.375 0  0.125 0.375 0  0.15625 0.375 0  0.1875 0.375 0  0.21875 0.375 0  0.25 0.375 0  0.28125 0.375 0  0.3125 0.375 0  0.34375 0.375 0  0.375 0.375 0  0.40625 0.375 0  0.4375 0.375 0  0.46875 0.375 0  0.5 0.375 0  0.53125 0.375 0  0.5625 0.375 0  0.59375 0.375 0  0.625 0.375 0  0.65625 0.375 0  0.6875 0.375 0  0.71875 0.375 0  0.75 0.375 0  0.78125 0.375 0  0.8125 0.375 0  0.84375 0.375 0  0.875 0.375 0  0.90625 0.375 0  0.9375 0.375 0  0.96875 0.375 0  1 0.375 0  0 0.40625 0  0.03125 0.40625 0  0.0625 0.40625 0  0.09375 0.40625 0  0.125 0.40625 0  0.15625 0.40625 0  0.1875 0.40625 0  0.21875 0.40625 0  0.25 0.40625 0  0.28125 0.40625 0  0.3125 0.40625 0  0.34375 0.40625 0  0.375 0.40625 0  0.40625 0.40625 0  0.4375 0.40625 0  0.46875 0.40625 0  0.5 0.40625 0  0.53125 0.40625 0  0.5625 0.40625 0  0.59375 0.40625 0  0.625 0.40625 0  0.65625 0.40625 0  0.6875 0.40625 0  0.71875 0.40625 0  0.75 0.40625 0  0.78125 0.40625 0  0.8125 0.40625 0  0.84375 0.40625 0  0.875 0.40625 0  0.90625 0.40625 0  0.9375 0.40625 0  0.96875 0.40625 0  1 0.40625 0  0 0.4375 0  0.03125 0.4375 0  0.0625 0.4375 0  0.09375 0.4375 0  0.125 0.4375 0  0.15625 0.4375 0  0.1875 0.4375 0  0.21875 0.4375 0  0.25 0.4375 0  0.28125 0.4375 0  0.3125 0.4375 0  0.34375 0.4375 0  0.375 0.4375 0  0.40625 0.4375 0  0.4375 0.4375 0  0.46875 0.4375 0  0.5 0.4375 0  0.53125 0.4375 0  0.5625 0.4375 0  0.59375 0.4375 0  0.625 0.4375 0  0.65625 0.4375 0  0.6875 0.4375 0  0.71875 0.4375 0  0.75 0.4375 0  0.78125 0.4375 0  0.8125 0.4375 0  0.84375 0.4375 0  0.875 0.4375 0  0.90625 0.4375 0  0.9375 0.4375 0  0.96875 0.4375 0  1 0.4375 0  0 0.46875 0  0.03125 0.46875 0  0.0625 0.46875 0  0.09375 0.46875 0  0.125 0.46875 0  0.15625 0.46875 0  0.1875 0.46875 0  0.21875 0.46875 0  0.25 0.46875 0  0.28125 0.46875 0  0.3125 0.46875 0  0.34375 0.46875 0  0.375 0.46875 0  0.40625 0.46875 0  0.4375 0.46875 0  0.46875 0.46875 0  0.5 0.46875 0  0.53125 0.46875 0  0.5625 0.46875 0  0.59375 0.46875 0  0.625 0.46875 0  0.65625 0.46875 0  0.6875 0.46875 0  0.71875 0.46875 0  0.75 0.46875 0  0.78125 0.46875 0  0.8125 0.46875 0  0.84375 0.46875 0  0.875 0.46875 0  0.90625 0.46875 0  0.9375 0.46875 0  0.96875 0.46875 0  1 0.46875 0  0 0.5 0  0.03125 0.5 0  0.0625 0.5 0  0.09375 0.5 0  0.125 0.5 0  0.15625 0.5 0  0.1875 0.5 0  0.21875 0.5 0  0.25 0.5 0  0.28125 0.5 0  0.3125 0.5 0  0.34375 0.5 0  0.375 0.5 0  0.40625 0.5 0  0.4375 0.5 0  0.46875 0.5 0  0.5 0.5 0  0.53125 0.5 0  0.5625 0.5 0  0.59375 0.5 0  0.625 0.5 0  0.65625 0.5 0  0.6875 0.5 0  0.71875 0.5 0  0.75 0.5 0  0.78125 0.5 0  0.8125 0.5 0  0.84375 0.5 0  0.875 0.5 0  0.90625 0.5 0  0.9375 0.5 0  0.96875 0.5 0  1 0.5 0  0 0.53125 0  0.03125 0.53125 0  0.0625 0.53125 0  0.09375 0.53125 0  0.125 0.53125 0  0.15625 0.53125 0  0.1875 0.53125 0  0.21875 0.53125 0  0.25 0.53125 0  0.28125 0.53125 0  0.3125 0.53125 0  0.34375 0.53125 0  0.375 0.53125 0  0.40625 0.53125 0  0.4375 0.53125 0  0.46875 0.53125 0  0.5 0.53125 0  0.53125 0.53125 0  0.5625 0.53125 0  0.59375 0.53125 0  0.625 0.53125 0  0.65625 0.53125 0  0.6875 0.53125 0  0.71875 0.53125 0  0.75 0.53125 0  0.78125 0.531
[...]
<PointData  Scalars="phi"> 
<DataArray  type="Float64"  Name="phi"  format="ascii">0.0000000000000000e+00  0.0000000000000000e+00  0.0000000000000000e+00  0.0000000000000000e+00  0.0000000000000000e+00  0.0000000000000000e+00  0.0000000000000000e+00  0.0000000000000000e+00  0.0000000000000000e+00  0.0000000000000000e+00  0.0000000000000000e+00  0.0000000000000000e+00  0.0000000000000000e+00  0.0000000000000000e+00  0.0000000000000000e+00  0.0000000000000000e+00  0.0000000000000000e+00  0.0000000000000000e+00  0.0000000000000000e+00  0.0000000000000000e+00  0.0000000000000000e+00  0.0000000000000000e+00  0.0000000000000000e+00  0.0000000000000000e+00  0.0000000000000000e+00  0.0000000000000000e+00  0.0000000000000000e+00  0.0000000000000000e+00  0.0000000000000000e+00  0.0000000000000000e+00  0.0000000000000000e+00  0.0000000000000000e+00  0.0000000000000000e+00  0.0000000000000000e+00  2.3006791178062925e-16  7.8423469619375578e-06  3.0969498662262437e-05  7.6070570061200103e-05  1.4875406465691621e-04  2.5326394215241250e-04  3.9225098148583571e-04  5.6660888238905290e-04  7.7538194535398510e-04  1.0157483746411539e-03  1.2830803140652651e-03  1.5710787469969218e-03  1.8719784797891412e-03  2.1768156923824252e-03  2.4757480864330038e-03  2.7584155848877586e-03  3.0143279181441898e-03  3.2332643339141867e-03  3.4056701337989736e-03  3.5230347908793772e-03  3.5782370384045423e-03  3.5658435167105909e-03  3.4823492794368617e-03  3.3263506275888100e-03  3.0986432823340007e-03  2.8022417365489286e-03  2.4423186549320346e-03  2.0260663649873641e-03  1.5624858401823501e-03  1.0621125053922268e-03  5.3669421679893947e-04  0.0000000000000000e+00  0.0000000000000000e+00  -7.8423469610213696e-06  9.1252537036999993e-16  3.8419322119806692e-05  1.2080871115716099e-04  2.5840951136693049e-04  4.5974437305818173e-04  7.3016084733342423e-04  1.0715040396972824e-03  1.4819318679584841e-03  1.9558809652898313e-03  2.4841854444434511e-03  3.0543448145648349e-03  3.6509315442448901e-03  4.2561233165943953e-03  4.8503401348511206e-03  5.4129622998271504e-03  5.9231020541908692e-03  6.3603994990031531e-03  6.7058123210898450e-03  6.9423689685866796e-03  7.0558561744547832e-03  7.0354141075096568e-03  6.8740158385960830e-03  6.5688121184298192e-03  6.1213275130412963e-03  5.5374995478370704e-03  4.8275584735736465e-03  4.0057513892193834e-03  3.0899205540798210e-03  2.1009516018675326e-03  1.0621125053922294e-03  0.0000000000000000e+00  0.0000000000000000e+00  -3.0969498660895360e-05  -3.8419322117082695e-05  2.0333018465214036e-15  1.0439757234847930e-04  2.9167787453163689e-04  5.7469463972748881e-04  9.6156949320439389e-04  1.4552028001165217e-03  2.0529968439870075e-03  2.7468033033062425e-03  3.5230983421393595e-03  4.3633798203054023e-03  5.2447725017913472e-03  6.1408190311965111e-03  7.0224271717720188e-03  7.8589376376048178e-03  8.6192720463527054e-03  9.2731172551595350e-03  9.7921007490805977e-03  1.0150911892350465e-02  1.0328325725244000e-02  1.0308089523694811e-02  1.0079637402040383e-02  9.6386046394933214e-03  8.9871209052531410e-03  8.1338698603735590e-03  7.0939114079248055e-03  5.8882717986127424e-03  4.5433154854523389e-03  3.0899205540798340e-03  1.5624858401823601e-03  0.0000000000000000e+00  0.0000000000000000e+00  -7.6070570059389093e-05  -1.2080871115355178e-04  -1.0439757234309034e-04  3.5709952847176926e-15  2.1498983738996559e-04  5.5782734996334335e-04  1.0395157400617050e-03  1.6641577339853142e-03  2.4285873856104618e-03  3.3222977671893174e-03  4.3276689635292822e-03  5.4204891723148088e-03  6.5707503381483073e-03  7.7436890531918405e-03  8.9010338586115387e-03  1.0002411951408266e-02  1.1006861956971583e-02  1.1874395116268418e-02  1.2567545127070255e-02  1.3052847055291698e-02  1.3302188191548913e-02  1.3293978377699118e-02  1.3014093992153093e-02  1.2456558206981492e-02  1.1623929991312520e-02  1.0527385253439126e-02  9.1864850608011726e-03  7.6286375864055237e-03  5.8882717986127771e-03  4.0057513892194224e-03  2.0260663649873879e-03  0.0000000000000000e+00  0.0000000000000000e+00  -1.4875406465467031e-04  -2.5840951136245436e-04  -2.9167787452495279e-04  -2.1498983738110639e-04  5.4948214713707028e-15  3.7502951272464494e-04  9.2411309923388387e-04  1.6527380951215462e-03  2.5574063534390583e-03  3.6255405580823425e-03  4.8357607909002018e-03  6.1585225627109347e-03  7.5570934996801670e-03  8.9888326942856901e-03  1.0406724896464711e-02  1.1761111695342870e-02  1.3001554015133605e-02  1.4078754925485978e-02  1.4946469155323040e-02  1.5563325904087152e-02  1.5894494560779758e-02  1.5913128656321995e-02  1.5601531571439347e-02  1.4951997887242566e-02  1.3967296401082551e-02  1.2660774267938657e-02  1.1056075945452534e-02  9.1864850608012437e-03  7.0939114079248983e-03  4.8275584735737289e-03  2.4423186549320814e-03  0.0000000000000000e+00  0.0000000000000000e+00  -2.5326394214974352e-04  -4.5974437305286165e-04  -5.7469463971954421e-04  -5.5782734995281336e-04  -3.7502951271158204e-04  7.7635845242359983e-15  5.8442830949695509e-04  1.3853345715733266e-03  2.3991630094032162e-03  3.6116061308718206e-03  4.9979247578609614e-03  6.5236946181593137e-03  8.1459527173403275e-03  9.8147011592316039e-03  1.1474712123014225e-02  1.3067565874624610e-02  1.4533844449832117e-02  1.5815397356059031e-02  1.6857592545883752e-02  1.7611466140229411e-02  1.8035687918593515e-02  1.8098266314696843e-02  1.7777926303325055e-02  1.7065105769673204e-02  1.5962530249097086e-02  1.4485341764924107e-02  1.2660774267938773e-02  1.0527385253439303e-02  8.1338698603737429e-03  5.5374995478372152e-03  2.8022417365490093e-03  0.0000000000000000e+00  0.0000000000000000e+00  -3.9225098148275793e-04  -7.3016084732728873e-04  -9.6156949319523173e-04  -1.0395157400495615e-03  -9.2411309921881974e-04  -5.8442830947904949e-04  1.0323498458358559e-14  8.3806310403866180e-04  1.9264489407241395e-03  3.2495004966896319e-03  4.7795735469070566e-03  6.4778821915290052e-03  8.2958017368658828e-03  1.0176580695820711e-02  1.2057397723488050e-02  1.3871685775368575e-02  1.5551635204103896e-02  1.7030780307168487e-02  1.8246570284151147e-02  1.9142825799122947e-02  1.9671986366172255e-02  1.9797061433831007e-02  1.9493209046329021e-02  1.8748879887411408e-02  1.7566480834852495e-02  1.5962530249097270e-02  1.3967296401082848e-02  1.1623929991312849e-02  8.9871209052534446e-03  6.1213275130415261e-03  3.0986432823341234e-03  0.0000000000000000e+00  0.0000000000000000e+00  -5.6660888238558378e-04  -1.0715040396903669e-03  -1.4552028001061947e-03  -1.6641577339716271e-03  -1.6527380951045678e-03  -1.3853345715531460e-03  -8.3806310401539417e-04  1.3109514187377226e-14  1.1261014987250771e-03  2.5236431285267195e-03  4.1625708105973358e-03  6.0003084496441320e-03  7.9832025421788140e-03  1.0048423981500808e-02  1.2126255635041602e-02  1.4142679167066335e-02  1.6022162771845695e-02  1.7690543428278350e-02  1.9077893300983022e-02  2.0121260152926593e-02  2.0767176095982075e-02  2.0973837521431456e-02  2.0712871299719434e-02  1.9970617852209958e-02  1.8748879887411678e-02  1.7065105769673645e-02  1.4951997887243091e-02  1.2456558206982020e-02  9.6386046394937794e-03  6.5688121184301566e-03  3.3263506275889886e-03  0.0000000000000000e+00  0.0000000000000000e+00  -7.7538194535014561e-04  -1.4819318679508307e-03  -2.0529968439755800e-03  -2.4285873855953151e-03  -2.5574063534202700e-03  -2.3991630093808873e-03  -1.9264489406983956e-03  -1.1261014986960716e-03  1.6042712760601665e-14  1.4347382846782884e-03  3.1461722230326488e-03  5.0885473228149628e-03  7.2038659007677740e-03  9.4239584745021317e-03  1.1672978434269402e-02  1.3870225513459081e-02  1.5933190639359968e-02  1.7780705911699786e-02  1.9336079070082602e-02  2.0530092045971414e-02  2.1303748046001245e-02  2.1610660899572632e-02  2.1418993773247956e-02  2.0712871299719778e-02  1.9493209046329632e-02  1.7777926303325822e-02  1.5601531571440150e-02  1.3014093992153855e-02  1.0079637402041028e-02  6.8740158385965479e-03  3.4823492794371050e-03  0.0000000000000000e+00  0.0000000000000000e+00  -1.0157483746369704e-03  -1.9558809652814911e-03  -2.7468033032937876e-03  -3.3222977671728102e-03  -3.6255405580618706e-03  -3.6116061308474902e-03  -3.2495004966615827e-03  -2.5236431284951185e-03  -1.4347382846433378e-03  1.9033585355282530e-14  1.7472801346374058e-03  3.7588079402174294e-03  5.9729650613177193e-03  8.3170281453568175e-03  1.0709845110212602e-02  1.3064867000021563e-02  1.5293419980589503e-02  1.7308092490498569e-02  1.9026107812955610e-02  2.0372552553865109e-02  2.1283336699745008e-02  2.1707770890517671e-02  2.1610660899573093e-02  2.0973837521432247e-02  1.9797061433832034e-02  1.8098266314697974e-02  1.5913128656323126e-02  1.3293978377700161e-02  1.0308089523695673e-02  7.0354141075102683e-03  3.5658435167109097e-03  0.0000000000000000e+00  0.0000000000000000e+00  -1.2830803140607661e-03  -2.4841854444344813e-03  -3.5230983421259653e-03  -4.3276689635115308e-03  -4.8357607908781873e-03  -4.9979247578347992e-03  -4.7795735468768993e-03  -4.1625708105633621e-03  -3.1461722229950790e-03  -1.7472801345964938e-03  2.1981888410891252e-14  2.0454863458627534e-03  4.3246891142193758e-03  6.7611544215255923e-03  9.2692949988143775e-03  1.1757600232952905e-02  1.4132103189591610e-02  1.6299972116977229e-02  1.8173088853806266e-02  1.9671476762481471e-02  2.0726446278291746e-02  2.1283336699745553e-02  2.1303748046002245e-02  2.0767176095983383e-02  1.9671986366173757e-02  1.8035687918595073e-02  1.5894494560781267e-02  1.3302188191550266e-02  1.0328325725245105e-02  7.0558561744555603e-03  3.5782370384049448e-03  0.0000000000000000e+00  0.0000000000000000e+00  -1.5710787469921405e-03  -3.0543448145553026e-03  -4.3633798202911663e-03  -5.4204891722959420e-03  -6.1585225626875368e-03  -6.5236946181315139e-03  -6.4778821914969632e-03  -6.0003084496080420e-03  -5.0885473227750564e-03  -3.7588079401739793e-03  -2.0454863458160694e-03  2.4782205462821525e-14  2.3110517713404114e-03  4.8083321803019637e-03  7.4027236277429036e-03  9.9986841171585440e-03  1.2497875372946877e-02  1.4802923929837468e-02  1.6821171103008820e-02  1.8468267916886855e-02  1.9671476762482112e-02  2.0372552553866281e-02  2.0530092045973010e-02  2.0121260152928467e-02  1.9142825799124977e-02  1.7611466140231447e-02  1.5563325904089069e-02  1.3052847055293389e-02  1.0150911892351828e-02  6.9423689685876320e-03  3.5230347908798676e-03  0.0000000000000000e+00  0.0000000000000000e+00  -1.8719784797841140e-03  -3.6509315442348699e-03  -5.2447725017763808e-03  -6.5707503381284742e-03  -7.5570934996555764e-03  -8.1459527173111113e-03  -8.2958017368322083e-03  -7.9832025421408895e-03  -7.2038659007258483e-03  -5.9729650612720788e-03  -4.3246891141703429e-03  -2.3110517712883597e-03  2.7327922046236113e-14  2.5271060510770110e-03  5.1785461125393763e-03  7.8557094925620994e-03  1.0456848887573041e-02  1.2880974682804342e-02  1.5031740527604790e-02  1.6821171103009538e-02  1.8173088853807608e-02  1.9026107812957466e-02  1.9336079070084847e-02  1.9077893300985499e-02  1.8246570284153728e-02  1.6857592545886292e-02  1.4946469155325387e-02  1.2567545127072302e-02  9.7921007490822300e-03  6.7058123210909813e-03  3.4056701337995565e-03  0.0000000000000000e+00  0.0000000000000000e+00  -2.1768156923771946e-03  -4.2561233165839662e-03  -6.1408190311809342e-03  -7.7436890531712051e-03  -8.9888326942601064e-03  -9.8147011592012116e-03  -1.0176580695785689e-02  -1.0048423981461371e-02  -9.4239584744585381e-03  -8.3170281453093624e-03  -6.7611544214746218e-03  -4.8083321802478629e-03  -2.5271060510202109e-03  2.9509829123336065e-14  2.6796019013350745e-03  5.4110044384633850e-03  8.0900442408796784e-03  1.0613079666666598e-02  1.2880974682805142e-02  1.4802923929838974e-02  1.6299972116979342e-02  1.7308092490501158e-02  1.7780705911702721e-02  1.7690543428281476e-02  1.7030780307171658e-02  1.5815397356062084e-02  1.4078754925488775e-02  1.1874395116270826e-02  9.2731172551614414e-03  6.3603994990044776e-03  3.2332643339148650e-03  0.0000000000000000e+00  0.0000000000000000e+00  -2.4757480864276153e-03  -4.8503401348403757e-03  -7.0224271717559744e-03  -8.9010338585902779e-03  -1.0406724896438360e-02  -1.1474712122982926e-02  -1.2057397723451987e-02  -1.2126255635000999e-02  -1.1672978434224518e-02  -1.0709845110163756e-02  -9.2692949987619230e-03  -7.4027236276872294e-03  -5.1785461124809334e-03  -2.6796019012743574e-03  3.1227240086518340e-14  2.7584746531906330e-03  5.4902560844387735e-03  8.0900442408805163e-03  1.0456848887574664e-02  1.2497875372949187e-02  1.4132103189594502e-02  1.5293419980592837e-02  1.5933190639363600e-02  1.6022162771849469e-02  1.5551635204107654e-02  1.4533844449835685e-02  1.3001554015136840e-02  1.1006861956974352e-02  8.6192720463548912e-03  5.9231020541923810e-03  3.0143279181449609e-03  0.0000000000000000e+00  0.0000000000000000e+00  -2.7584155848822622e-03  -5.4129622998161904e-03  -7.8589376375884559e-03  -1.0002411951386587e-02  -1.1761111695315993e-02  -1.3067565874592697e-02  -1.3871685775331806e-02  -1.4142679167024941e-02  -1.3870225513413329e-02  -1.3064866999971779e-02  -1.1757600232899448e-02  -9.9986841171018151e-03  -7.8557094925025550e-03  -5.4110044384015309e-03  -2.7584746531270185e-03  3.2394503203542621e-14  2.7584746531914960e-03  5.4110044384650764e-03  7.8557094925645575e-03  9.9986841171616648e-03  1.1757600232956572e-02  1.3064867000025633e-02  1.3870225513463402e-02  1.4142679167070744e-02  1.3871685775372896e-02  1.3067565874628678e-02  1.1761111695346521e-02  1.0002411951411376e-02  7.8589376376072620e-03  5.4129622998288348e-03  2.7584155848886177e-03  0.0000000000000000e+00  0.0000000000000000e+00  -3.0143279181386400e-03  -5.9231020541798025e-03  -8.6192720463361822e-03  -1.1006861956949693e-02  -1.3001554015106474e-02  -1.4533844449799894e-02  -1.5551635204066779e-02  -1.6022162771803908e-02  -1.5933190639313796e-02  -1.5293419980539262e-02  -1.4132103189537662e-02  -1.2497875372889636e-02  -1.0456848887512967e-02  -8.0900442408172839e-03  -5.4902560843746121e-03  -2.7584746531261594e-03  3.2939927416470302e-14  2.6796019013375985e-03  5.1785461125426376e-03  7.4027236277467981e-03  9.2692949988187820e-03  1.0709845110217369e-02  1.1672978434274367e-02  1.2126255635046599e-02  1.2057397723492895e-02  1.1474712123018756e-02  1.0406724896468763e-02  8.9010338586149613e-03  7.0224271717747016e-03  4.8503401348529655e-03  2.4757480864339427e-03  0.0000000000000000e+00  0.0000000000000000e+00  -3.2332643339086382e-03  -6.3603994989920899e-03  -9.2731172551430135e-03  -1.1874395116246531e-02  -1.4078754925458861e-02  -1.5815397356026821e-02  -1.7030780307131396e-02  -1.7690543428236599e-02  -1.7780705911653656e-02  -1.7308092490448377e-02  -1.6299972116923342e-02  -1.4802923929780297e-02  -1.2880974682744347e-02  -1.0613079666604290e-02  -8.0900442408164529e-03  -5.4110044383998482e-03  -2.6796019012718356e-03  3.2818859595424818e-14  2.5271060510810264e-03  4.8083321803065763e-03  6.7611544215306733e-03  8.3170281453622125e-03  9.4239584745076741e-03  1.0048423981506325e-02  1.0176580695826021e-02  9.8147011592365357e-03  8.9888326942900824e-03  7.7436890531955406e-03  6.1408190311993986e-03  4.2561233165963764e-03  2.1768156923834331e-03  0.0000000000000000e+00  0.0000000000000000e+00  -3.4056701337934845e-03  -6.7058123210789007e-03  -9.7921007490642548e-03  -1.2567545127048604e-02  -1.4946469155296216e-02  -1.6857592545851896e-02  -1.8246570284114468e-02  -1.9077893300941732e-02  -1.9336079070036996e-02  -1.9026107812905993e-02  -1.8173088853752996e-02  -1.6821171102952309e-02  -1.5031740527545500e-02  -1.2880974682743568e-02  -1.0456848887511361e-02  -7.8557094925001125e-03  -5.1785461124776722e-03  -2.5271060510161938e-03  3.2015465669271954e-14  2.3110517713456555e-03  4.3246891142250431e-03  5.9729650613236547e-03  7.2038659007738056e-03  7.9832025421847641e-03  8.2958017368715727e-03  8.1459527173455872e-03  7.5570934996848291e-03  6.5707503381522260e-03  5.2447725017944020e-03  3.6509315442469826e-03  1.8719784797902037e-03  0.0000000000000000e+00  0.0000000000000000e+00  -3.5230347908740082e-03  -6.9423689685759737e-03  -1.0150911892334479e-02  -1.3052847055270518e-02  -1.5563325904060904e-02  -1.7611466140198245e-02  -1.9142825799087070e-02  -2.0121260152886216e-02  -2.0530092045926814e-02  -2.0372552553816592e-02  -1.9671476762429391e-02  -1.8468267916831614e-02  -1.6821171102951588e-02  -1.4802923929778805e-02  -1.2497875372887334e-02  -9.9986841170986978e-03  -7.4027236276833280e-03  -4.8083321802432416e-03  -2.3110517712831109e-03  3.0542639617442528e-14  2.0454863458688887e-03  3.7588079402237858e-03  5.0885473228213692e-03  6.0003084496504126e-03  6.4778821915349788e-03  6.5236946181648102e-03  6.1585225627157885e-03  5.4204891723188802e-03  4.3633798203085708e-03  3.0543448145670020e-03  1.5710787469980217e-03  0.0000000000000000e+00  0.0000000000000000e+00  -3.5782370383993524e-03  -7.0558561744444373e-03  -1.0328325725228548e-02  -1.3302188191528440e-02  -1.5894494560754382e-02  -1.8035687918563390e-02  -1.9671986366137578e-02  -2.0767176095943057e-02  -2.1303748045958158e-02  -2.1283336699698126e-02  -2.0726446278241432e-02  -1.9671476762428752e-02  -1.8173088853751646e-02  -1.6299972116921239e-02  -1.4132103189534775e-02  -1.1757600232895777e-02  -9.2692949987575081e-03  -6.7611544214695356e-03  -4.3246891141646756e-03  -2.0454863458099349e-03  2.8447001836117963e-14  1.7472801346440476e-03  3.1461722230392984e-03  4.1625708106038193e-03  4.7795735469131993e-03  4.9979247578665932e-03  4.8357607909051640e-03  4.3276689635334334e-03  3.5230983421425843e-03  2.4841854444456538e-03  1.2830803140663825e-03  0.0000000000000000e+00  0.0000000000000000e+00  -3.5658435167056400e-03  -7.0354141074997836e-03  -1.0308089523680073e-02  -1.3293978377679590e-02  -1.5913128656297796e-02  -1.8098266314668116e-02  -1.9797061433797936e-02  -2.0973837521394235e-02  -2.1610660899531526e-02  -2.1707770890472971e-02  -2.1283336699697588e-02  -2.0372552553815423e-02  -1.9026107812904130e-02  -1.7308092490445785e-02  -1.5293419980535926e-02  -1.3064866999967705e-02  -1.0709845110158987e-02  -8.3170281453039674e-03  -5.9729650612661478e-03  -3.7588079401676285e-03  -1.7472801345898557e-03  2.5807162639815014e-14  1.4347382846850345e-03  2.5236431285332703e-03  3.2495004966958153e-03  3.6116061308774732e-03  3.6255405580873138e-03  3.3222977671934694e-03  2.7468033033094630e-03  1.9558809652920287e-03  1.0157483746422681e-03  0.0000000000000000e+00  0.0000000000000000e+00  -3.4823492794322079e-03  -6.8740158385868031e-03  -1.0079637402026531e-02  -1.3014093992134742e-02  -1.5601531571416614e-02  -1.7777926303298067e-02  -1.9493209046297946e-02  -2.0712871299684452e-02  -2.1418993773209331e-02  -2.1610660899531089e-02  -2.1303748045957176e-02  -2.0530092045925232e-02  -1.9336079070034751e-02  -1.7780705911650724e-02  -1.5933190639310160e-02  -1.3870225513409018e-02  -1.1672978434219558e-02  -9.4239584744529974e-03  -7.2038659007198254e-03  -5.0885473227686578e-03  -3.1461722229884346e-03  -1.4347382846365939e-03  2.2729750140120521e-14  1.1261014987315467e-03  1.9264489407302288e-03  2.3991630094087695e-03  2.5574063534439320e-03  2.4285873856145280e-03  2.0529968439901565e-03  1.4819318679606315e-03  7.7538194535507364e-04  0.0000000000000000e+00  0.0000000000000000e+00  -3.3263506275845118e-03  -6.5688121184212479e-03  -9.6386046394805244e-03  -1.2456558206964541e-02  -1.4951997887221565e-02  -1.7065105769648269e-02  -1.8748879887382695e-02  -1.9970617852177644e-02  -2.0712871299684112e-02  -2.0973837521393458e-02  -2.0767176095941767e-02  -2.0121260152884356e-02  -1.9077893300939269e-02  -1.7690543428233476e-02  -1.6022162771800137e-02  -1.4142679167020538e-02  -1.2126255634996006e-02  -1.0048423981455860e-02  -7.9832025421349463e-03  -6.0003084496017675e-03  -4.1625708105568846e-03  -2.5236431284885730e-03  -1.1261014986896037e-03  1.9347577290342656e-14  8.3806310404451986e-04  1.3853345