<?xml version="1.0"?>
<VTKFile type="UnstructuredGrid"  version="0.1"  >
<UnstructuredGrid>
<Piece  NumberOfPoints="1089" NumberOfCells="2048">
<Points>
<DataArray  type="Float64"  NumberOfComponents="3"  format="ascii">0 0 0  0.03125 0 0  0.0625 0 0  0.09375 0 0  0.125 0 0  0.15625 0 0  0.1875 0 0  0.21875 0 0  0.25 0 0  0.28125 0 0  0.3125 0 0  0.34375 0 0  0.375 0 0  0.40625 0 0  0.4375 0 0  0.46875 0 0  0.5 0 0  0.53125 0 0  0.5625 0 0  0.59375 0 0  0.625 0 0  0.65625 0 0  0.6875 0 0  0.71875 0 0  0.75 0 0  0.78125 0 0  0.8125 0 0  0.84375 0 0  0.875 0 0  0.90625 0 0  0.9375 0 0  0.96875 0 0  1 0 0  0 0.03125 0  0.03125 0.03125 0  0.0625 0.03125 0  0.09375 0.03125 0  0.125 0.03125 0  0.15625 0.03125 0  0.1875 0.03125 0  0.21875 0.03125 0  0.25 0.03125 0  0.28125 0.03125 0  0.3125 0.03125 0  0.34375 0.03125 0  0.375 0.03125 0  0.40625 0.03125 0  0.4375 0.03125 0  0.46875 0.03125 0  0.5 0.03125 0  0.53125 0.03125 0  0.5625 0.03125 0  0.59375 0.03125 0  0.625 0.03125 0  0.65625 0.03125 0  0.6875 0.03125 0  0.71875 0.03125 0  0.75 0.03125 0  0.78125 0.03125 0  0.8125 0.03125 0  0.84375 0.03125 0  0.875 0.03125 0  0.90625 0.03125 0  0.9375 0.03125 0  0.96875 0.03125 0  1 0.03125 0  0 0.0625 0  0.03125 0.0625 0  0.0625 0.0625 0  0.09375 0.0625 0  0.125 0.0625 0  0.15625 0.0625 0  0.1875 0.0625 0  0.21875 0.0625 0  0.25 0.0625 0  0.28125 0.0625 0  0.3125 0.0625 0  0.34375 0.0625 0  0.375 0.0625 0  0.40625 0.0625 0  0.4375 0.0625 0  0.46875 0.0625 0  0.5 0.0625 0  0.53125 0.0625 0  0.5625 0.0625 0  0.59375 0.0625 0  0.625 0.0625 0  0.65625 0.0625 0  0.6875 0.0625 0  0.71875 0.0625 0  0.75 0.0625 0  0.78125 0.0625 0  0.8125 0.0625 0  0.84375 0.0625 0  0.875 0.0625 0  0.90625 0.0625 0  0.9375 0.0625 0  0.96875 0.0625 0  1 0.0625 0  0 0.09375 0  0.03125 0.09375 0  0.0625 0.09375 0  0.09375 0.09375 0  0.125 0.09375 0  0.15625 0.09375 0  0.1875 0.09375 0  0.21875 0.09375 0  0.25 0.09375 0  0.28125 0.09375 0  0.3125 0.09375 0  0.34375 0.09375 0  0.375 0.09375 0  0.40625 0.09375 0  0.4375 0.09375 0  0.46875 0.09375 0  0.5 0.09375 0  0.53125 0.09375 0  0.5625 0.09375 0  0.59375 0.09375 0  0.625 0.09375 0  0.65625 0.09375 0  0.6875 0.09375 0  0.71875 0.09375 0  0.75 0.09375 0  0.78125 0.09375 0  0.8125 0.09375 0  0.84375 0.09375 0  0.875 0.09375 0  0.90625 0.09375 0  0.9375 0.09375 0  0.96875 0.09375 0  1 0.09375 0  0 0.125 0  0.03125 0.125 0  0.0625 0.125 0  0.09375 0.125 0  0.125 0.125 0  0.15625 0.125 0  0.1875 0.125 0  0.21875 0.125 0  0.25 0.125 0  0.28125 0.125 0  0.3125 0.125 0  0.34375 0.125 0  0.375 0.125 0  0.40625 0.125 0  0.4375 0.125 0  0.46875 0.125 0  0.5 0.125 0  0.53125 0.125 0  0.5625 0.125 0  0.59375 0.125 0  0.625 0.125 0  0.65625 0.125 0  0.6875 0.125 0  0.71875 0.125 0  0.75 0.125 0  0.78125 0.125 0  0.8125 0.125 0  0.84375 0.125 0  0.875 0.125 0  0.90625 0.125 0  0.9375 0.125 0  0.96875 0.125 0  1 0.125 0  0 0.15625 0  0.03125 0.15625 0  0.0625 0.15625 0  0.09375 0.15625 0  0.125 0.15625 0  0.15625 0.15625 0  0.1875 0.15625 0  0.21875 0.15625 0  0.25 0.15625 0  0.28125 0.15625 0  0.3125 0.15625 0  0.34375 0.15625 0  0.375 0.15625 0  0.40625 0.15625 0  0.4375 0.15625 0  0.46875 0.15625 0  0.5 0.15625 0  0.53125 0.15625 0  0.5625 0.15625 0  0.59375 0.15625 0  0.625 0.15625 0  0.65625 0.15625 0  0.6875 0.15625 0  0.71875 0.15625 0  0.75 0.15625 0  0.78125 0.15625 0  0.8125 0.15625 0  0.84375 0.15625 0  0.875 0.15625 0  0.90625 0.15625 0  0.9375 0.15625 0  0.96875 0.15625 0  1 0.15625 0  0 0.1875 0  0.03125 0.1875 0  0.0625 0.1875 0  0.09375 0.1875 0  0.125 0.1875 0  0.15625 0.1875 0  0.1875 0.1875 0  0.21875 0.1875 0  0.25 0.1875 0  0.28125 0.1875 0  0.3125 0.1875 0  0.34375 0.1875 0  0.375 0.1875 0  0.40625 0.1875 0  0.4375 0.1875 0  0.46875 0.1875 0  0.5 0.1875 0  0.53125 0.1875 0  0.5625 0.1875 0  0.59375 0.1875 0  0.625 0.1875 0  0.65625 0.1875 0  0.6875 0.1875 0  0.71875 0.1875 0  0.75 0.1875 0  0.78125 0.1875 0  0.8125 0.1875 0  0.84375 0.1875 0  0.875 0.1875 0  0.90625 0.1875 0  0.9375 0.1875 0  0.96875 0.1875 0  1 0.1875 0  0 0.21875 0  0.03125 0.21875 0  0.0625 0.21875 0  0.09375 0.21875 0  0.125 0.21875 0  0.15625 0.21875 0  0.1875 0.21875 0  0.21875 0.21875 0  0.25 0.21875 0  0.28125 0.21875 0  0.3125 0.21875 0  0.34375 0.21875 0  0.375 0.21875 0  0.40625 0.21875 0  0.4375 0.21875 0  0.46875 0.21875 0  0.5 0.21875 0  0.53125 0.21875 0  0.5625 0.21875 0  0.59375 0.21875 0  0.625 0.21875 0  0.65625 0.21875 0  0.6875 0.21875 0  0.71875 0.21875 0  0.75 0.21875 0  0.78125 0.21875 0  0.8125 0.21875 0  0.84375 0.21875 0  0.875 0.21875 0  0.90625 0.21875 0  0.9375 0.21875 0  0.96875 0.21875 0  1 0.21875 0  0 0.25 0  0.03125 0.25 0  0.0625 0.25 0  0.09375 0.25 0  0.125 0.25 0  0.15625 0.25 0  0.1875 0.25 0  0.21875 0.25 0  0.25 0.25 0  0.28125 0.25 0  0.3125 0.25 0  0.34375 0.25 0  0.375 0.25 0  0.40625 0.25 0  0.4375 0.25 0  0.46875 0.25 0  0.5 0.25 0  0.53125 0.25 0  0.5625 0.25 0  0.59375 0.25 0  0.625 0.25 0  0.65625 0.25 0  0.6875 0.25 0  0.71875 0.25 0  0.75 0.25 0  0.78125 0.25 0  0.8125 0.25 0  0.84375 0.25 0  0.875 0.25 0  0.90625 0.25 0  0.9375 0.25 0  0.96875 0.25 0  1 0.25 0  0 0.28125 0  0.03125 0.28125 0  0.0625 0.28125 0  0.09375 0.28125 0  0.125 0.28125 0  0.15625 0.28125 0  0.1875 0.28125 0  0.21875 0.28125 0  0.25 0.28125 0  0.28125 0.28125 0  0.3125 0.28125 0  0.34375 0.28125 0  0.375 0.28125 0  0.40625 0.28125 0  0.4375 0.28125 0  0.46875 0.28125 0  0.5 0.28125 0  0.53125 0.28125 0  0.5625 0.28125 0  0.59375 0.28125 0  0.625 0.28125 0  0.65625 0.28125 0  0.6875 0.28125 0  0.71875 0.28125 0  0.75 0.28125 0  0.78125 0.28125 0  0.8125 0.28125 0  0.84375 0.28125 0  0.875 0.28125 0  0.90625 0.28125 0  0.9375 0.28125 0  0.96875 0.28125 0  1 0.28125 0  0 0.3125 0  0.03125 0.3125 0  0.0625 0.3125 0  0.09375 0.3125 0  0.125 0.3125 0  0.15625 0.3125 0  0.1875 0.3125 0  0.21875 0.3125 0  0.25 0.3125 0  0.28125 0.3125 0  0.3125 0.3125 0  0.34375 0.3125 0  0.375 0.3125 0  0.40625 0.3125 0  0.4375 0.3125 0  0.46875 0.3125 0  0.5 0.3125 0  0.53125 0.3125 0  0.5625 0.3125 0  0.59375 0.3125 0  0.625 0.3125 0  0.65625 0.3125 0  0.6875 0.3125 0  0.71875 0.3125 0  0.75 0.3125 0  0.78125 0.3125 0  0.8125 0.3125 0  0.84375 0.3125 0  0.875 0.3125 0  0.90625 0.3125 0  0.9375 0.3125 0  0.96875 0.3125 0  1 0.3125 0  0 0.34375 0  0.03125 0.34375 0  0.0625 0.34375 0  0.09375 0.34375 0  0.125 0.34375 0  0.15625 0.34375 0  0.1875 0.34375 0  0.21875 0.34375 0  0.25 0.34375 0  0.28125 0.34375 0  0.3125 0.34375 0  0.34375 0.34375 0  0.375 0.34375 0  0.40625 0.34375 0  0.4375 0.34375 0  0.46875 0.34375 0  0.5 0.34375 0  0.53125 0.34375 0  0.5625 0.34375 0  0.59375 0.34375 0  0.625 0.34375 0  0.65625 0.34375 0  0.6875 0.34375 0  0.71875 0.34375 0  0.75 0.34375 0  0.78125 0.34375 0  0.8125 0.34375 0  0.84375 0.34375 0  0.875 0.34375 0  0.90625 0.34375 0  0.9375 0.34375 0  0.96875 0.34375 0  1 0.34375 0  0 0.375 0  0.03125 0.375 0  0.0625 0.375 0  0.09375 0.375 0  0.125 0.375 0  0.15625 0.375 0  0.1875 0.375 0  0.21875 0.375 0  0.25 0.375 0  0.28125 0.375 0  0.3125 0.375 0  0.34375 0.375 0  0.375 0.375 0  0.40625 0.375 0  0.4375 0.375 0  0.46875 0.375 0  0.5 0.375 0  0.53125 0.375 0  0.5625 0.375 0  0.59375 0.375 0  0.625 0.375 0  0.65625 0.375 0  0.6875 0.375 0  0.71875 0.375 0  0.75 0.375 0  0.78125 0.375 0  0.8125 0.375 0  0.84375 0.375 0  0.875 0.375 0  0.90625 0.375 0  0.9375 0.375 0  0.96875 0.375 0  1 0.375 0  0 0.40625 0  0.03125 0.40625 0  0.0625 0.40625 0  0.09375 0.40625 0  0.125 0.40625 0  0.15625 0.40625 0  0.1875 0.40625 0  0.21875 0.40625 0  0.25 0.40625 0  0.28125 0.40625 0  0.3125 0.40625 0  0.34375 0.40625 0  0.375 0.40625 0  0.40625 0.40625 0  0.4375 0.40625 0  0.46875 0.40625 0  0.5 0.40625 0  0.53125 0.40625 0  0.5625 0.40625 0  0.59375 0.40625 0  0.625 0.40625 0  0.65625 0.40625 0  0.6875 0.40625 0  0.71875 0.40625 0  0.75 0.40625 0  0.78125 0.40625 0  0.8125 0.40625 0  0.84375 0.40625 0  0.875 0.40625 0  0.90625 0.40625 0  0.9375 0.40625 0  0.96875 0.40625 0  1 0.40625 0  0 0.4375 0  0.03125 0.4375 0  0.0625 0.4375 0  0.09375 0.4375 0  0.125 0.4375 0  0.15625 0.4375 0  0.1875 0.4375 0  0.21875 0.4375 0  0.25 0.4375 0  0.28125 0.4375 0  0.3125 0.4375 0  0.34375 0.4375 0  0.375 0.4375 0  0.40625 0.4375 0  0.4375 0.4375 0  0.46875 0.4375 0  0.5 0.4375 0  0.53125 0.4375 0  0.5625 0.4375 0  0.59375 0.4375 0  0.625 0.4375 0  0.65625 0.4375 0  0.6875 0.4375 0  0.71875 0.4375 0  0.75 0.4375 0  0.78125 0.4375 0  0.8125 0.4375 0  0.84375 0.4375 0  0.875 0.4375 0  0.90625 0.4375 0  0.9375 0.4375 0  0.96875 0.4375 0  1 0.4375 0  0 0.46875 0  0.03125 0.46875 0  0.0625 0.46875 0  0.09375 0.46875 0  0.125 0.46875 0  0.15625 0.46875 0  0.1875 0.46875 0  0.21875 0.46875 0  0.25 0.46875 0  0.28125 0.46875 0  0.3125 0.46875 0  0.34375 0.46875 0  0.375 0.46875 0  0.40625 0.46875 0  0.4375 0.46875 0  0.46875 0.46875 0  0.5 0.46875 0  0.53125 0.46875 0  0.5625 0.46875 0  0.59375 0.46875 0  0.625 0.46875 0  0.65625 0.46875 0  0.6875 0.46875 0  0.71875 0.46875 0  0.75 0.46875 0  0.78125 0.46875 0  0.8125 0.46875 0  0.84375 0.46875 0  0.875 0.46875 0  0.90625 0.46875 0  0.9375 0.46875 0  0.96875 0.46875 0  1 0.46875 0  0 0.5 0  0.03125 0.5 0  0.0625 0.5 0  0.09375 0.5 0  0.125 0.5 0  0.15625 0.5 0  0.1875 0.5 0  0.21875 0.5 0  0.25 0.5 0  0.28125 0.5 0  0.3125 0.5 0  0.34375 0.5 0  0.375 0.5 0  0.40625 0.5 0  0.4375 0.5 0  0.46875 0.5 0  0.5 0.5 0  0.53125 0.5 0  0.5625 0.5 0  0.59375 0.5 0  0.625 0.5 0  0.65625 0.5 0  0.6875 0.5 0  0.71875 0.5 0  0.75 0.5 0  0.78125 0.5 0  0.8125 0.5 0  0.84375 0.5 0  0.875 0.5 0  0.90625 0.5 0  0.9375 0.5 0  0.96875 0.5 0  1 0.5 0  0 0.53125 0  0.03125 0.53125 0  0.0625 0.53125 0  0.09375 0.53125 0  0.125 0.53125 0  0.15625 0.53125 0  0.1875 0.53125 0  0.21875 0.53125 0  0.25 0.53125 0  0.28125 0.53125 0  0.3125 0.53125 0  0.34375 0.53125 0  0.375 0.53125 0  0.40625 0.53125 0  0.4375 0.53125 0  0.46875 0.53125 0  0.5 0.53125 0  0.53125 0.53125 0  0.5625 0.53125 0  0.59375 0.53125 0  0.625 0.53125 0  0.65625 0.53125 0  0.6875 0.53125 0  0.71875 0.53125 0  0.75 0.53125 0  0.78125 0.531
[...]
<PointData  Scalars="phi"> 
<DataArray  type="Float64"  Name="phi"  format="ascii">0.0000000000000000e+00  0.0000000000000000e+00  0.0000000000000000e+00  0.0000000000000000e+00  0.0000000000000000e+00  0.0000000000000000e+00  0.0000000000000000e+00  0.0000000000000000e+00  0.0000000000000000e+00  0.0000000000000000e+00  0.0000000000000000e+00  0.0000000000000000e+00  0.0000000000000000e+00  0.0000000000000000e+00  0.0000000000000000e+00  0.0000000000000000e+00  0.0000000000000000e+00  0.0000000000000000e+00  0.0000000000000000e+00  0.0000000000000000e+00  0.0000000000000000e+00  0.0000000000000000e+00  0.0000000000000000e+00  0.0000000000000000e+00  0.0000000000000000e+00  0.0000000000000000e+00  0.0000000000000000e+00  0.0000000000000000e+00  0.0000000000000000e+00  0.0000000000000000e+00  0.0000000000000000e+00  0.0000000000000000e+00  0.0000000000000000e+00  0.0000000000000000e+00  -2.5382955949271804e-05  -5.0057945635737248e-05  -7.3477179887896559e-05  -9.5112733142841649e-05  -1.1448599806721918e-04  -1.3118741290313692e-04  -1.4489096862677769e-04  -1.5536465071740819e-04  -1.6247702735937465e-04  -1.6619998462188263e-04  -1.6660762633298251e-04  -1.6387145019840905e-04  -1.5825202996074634e-04  -1.5008755440285108e-04  -1.3977968657023708e-04  -1.2777730368113724e-04  -1.1455875487887245e-04  -1.0061332675486219e-04  -8.6422633139840042e-05  -7.2442644883114962e-05  -5.9087047198429002e-05  -4.6712557728804800e-05  -3.5606759891276257e-05  -2.5978906383015335e-05  -1.7954030890394932e-05  -1.1570576697493397e-05  -6.7816143162525592e-06  -3.4595823251668342e-06  -1.4043530025088508e-06  -3.5430565437875905e-07  -3.9625665702202387e-18  0.0000000000000000e+00  0.0000000000000000e+00  -5.0057945635737140e-05  -9.8776415337278965e-05  -1.4502836960716059e-04  -1.8775341818429606e-04  -2.2599715263051505e-04  -2.5894502999396685e-04  -2.8594956554102387e-04  -3.0655053143219182e-04  -3.2048784524664416e-04  -3.2770692097920326e-04  -3.2835643972699714e-04  -3.2277873245324396e-04  -3.1149321961652086e-04  -2.9517359989800608e-04  -2.7461970713035040e-04  -2.5072514912792944e-04  -2.2444199548329327e-04  -1.9674388689515485e-04  -1.6858899180826481e-04  -1.4088423486020412e-04  -1.1445216583399182e-04  -9.0001729660089735e-05  -6.8104041709085401e-05  -4.9174074274968012e-05  -3.3458927549663261e-05  -2.1033100722443393e-05  -1.1800906424800142e-05  -5.5058957989340718e-06  -1.7468940063475114e-06  -1.5524190191836090e-17  3.5430565436306734e-07  0.0000000000000000e+00  0.0000000000000000e+00  -7.3477179887896098e-05  -1.4502836960716002e-04  -2.1295934497923895e-04  -2.7568788429827631e-04  -3.3179529886208879e-04  -3.8007344909254693e-04  -4.1956363162974815e-04  -4.4958590232115872e-04  -4.6975789927385157e-04  -4.8000262352761842e-04  -4.8054502413176893e-04  -4.7189763317573644e-04  -4.5483589303293580e-04  -4.3036419577071629e-04  -3.9967399676333687e-04  -3.6409565639027849e-04  -3.2504589318003150e-04  -2.8397288952988406e-04  -2.4230117085735306e-04  -2.0137837753194575e-04  -1.6242596622711210e-04  -1.2649571663600815e-04  -9.4433687070506699e-05  -6.6852967370827977e-05  -4.4116231312440525e-05  -2.6328706862573234e-05  -1.3341776316092022e-05  -4.7670056555836914e-06  -3.3607149737145631e-17  1.7468940063018195e-06  1.4043530024857476e-06  0.0000000000000000e+00  0.0000000000000000e+00  -9.5112733142840524e-05  -1.8775341818429424e-04  -2.7568788429827473e-04  -3.5683503345630804e-04  -4.2933262641513292e-04  -4.9159756278150703e-04  -5.4237604110610876e-04  -5.8078155259182120e-04  -6.0631930081864746e-04  -6.1889621822866080e-04  -6.1881631203928992e-04  -6.0676162727859228e-04  -5.8375965367304635e-04  -5.5113850960954484e-04  -5.1047169199846089e-04  -4.6351456820459117e-04  -4.1213509028124884e-04  -3.5824142072574919e-04  -3.0370926476713653e-04  -2.5031170272033952e-04  -1.9965420728954968e-04  -1.5311731913148459e-04  -1.1180914773907617e-04  -7.6529475689061409e-05  -4.7746787633724538e-05  -2.5589038856928710e-05  -9.8484414466940048e-06  -5.6481005829988784e-17  4.7670056554965359e-06  5.5058957988748007e-06  3.4595823251368526e-06  0.0000000000000000e+00  0.0000000000000000e+00  -1.1448599806721695e-04  -2.2599715263051117e-04  -3.3179529886208446e-04  -4.2933262641512972e-04  -5.1633217499018607e-04  -5.9086130957211038e-04  -6.5139280408436863e-04  -6.9685110691347846e-04  -7.2664203614431486e-04  -7.4066484343912327e-04  -7.3930628360003789e-04  -7.2341702061789960e-04  -6.9427137310047488e-04  -6.5351203134795220e-04  -6.0308194306146659e-04  -5.4514604402911937e-04  -4.8200588615172993e-04  -4.1601047360643740e-04  -3.4946674899543863e-04  -2.8455317006063127e-04  -2.2323968412340476e-04  -1.6721714708452695e-04  -1.1783885673484647e-04  -7.6076390924488955e-05  -4.2491378387116369e-05  -1.7224205490704601e-05  -8.1925491823422110e-17  9.8484414465579137e-06  1.3341776315986968e-05  1.1800906424728670e-05  6.7816143162163943e-06  0.0000000000000000e+00  0.0000000000000000e+00  -1.3118741290313318e-04  -2.5894502999396002e-04  -3.8007344909253853e-04  -4.9159756278149890e-04  -5.9086130957210496e-04  -6.7561387281743967e-04  -7.4408119442255223e-04  -7.9502005989347420e-04  -8.2775272516312482e-04  -8.4218083546069281e-04  -8.3877819840366317e-04  -8.1856278992995164e-04  -7.8304916558892600e-04  -7.3418319371794274e-04  -6.7426169451241373e-04  -6.0584013543753560e-04  -5.3163197771200822e-04  -4.5440357403500056e-04  -3.7686867284862852e-04  -3.0158658346652635e-04  -2.3086789956494591e-04  -1.6669137201772658e-04  -1.1063507780099410e-04  -6.3824466926877294e-05  -2.6899205936239315e-05  -1.0742703001491862e-16  1.7224205490516892e-05  2.5589038856772680e-05  2.6328706862452712e-05  2.1033100722361353e-05  1.1570576697451874e-05  0.0000000000000000e+00  0.0000000000000000e+00  -1.4489096862677187e-04  -2.8594956554101308e-04  -4.1956363162973400e-04  -5.4237604110609359e-04  -6.5139280408435497e-04  -7.4408119442254366e-04  -8.1845101491817823e-04  -8.7311595018381839e-04  -9.0733273151559935e-04  -9.2101670266375940e-04  -9.1473328947595030e-04  -8.8966580323221901e-04  -8.4756091238352596e-04  -7.9065396695117472e-04  -7.2157712259307322e-04  -6.4325385885947149e-04  -5.5878399416887210e-04  -4.7132364943401085e-04  -3.8396478994020015e-04  -2.9961897444095282e-04  -2.2090976172305920e-04  -1.5007787516364788e-04  -8.8902718672761462e-05  -3.8643192539181453e-05  -1.3040127945043081e-16  2.6899205936002437e-05  4.2491378386909191e-05  4.7746787633552170e-05  4.4116231312307290e-05  3.3458927549572520e-05  1.7954030890348982e-05  0.0000000000000000e+00  0.0000000000000000e+00  -1.5536465071739971e-04  -3.0655053143217588e-04  -4.4958590232113715e-04  -5.8078155259179659e-04  -6.9685110691345407e-04  -7.9502005989345338e-04  -8.7311595018380592e-04  -9.2963632475867434e-04  -9.6379198990094298e-04  -9.7552399418530087e-04  -9.6549379755159898e-04  -9.3504710792505739e-04  -8.8615287259089068e-04  -8.2131985724433958e-04  -7.4349409547976660e-04  -6.5594121331728761e-04  -5.6211819989857004e-04  -4.6553958530521126e-04  -3.6964318487841836e-04  -2.7766056907223930e-04  -1.9249721898844378e-04  -1.1662693816375301e-04  -5.2004526066821017e-05  -1.4841844639872278e-16  3.8643192538902942e-05  6.3824466926623916e-05  7.6076390924267033e-05  7.6529475688876593e-05  6.6852967370685024e-05  4.9174074274870597e-05  2.5978906382965984e-05  0.0000000000000000e+00  0.0000000000000000e+00  -1.6247702735936305e-04  -3.2048784524662209e-04  -4.6975789927382111e-04  -6.0631930081861147e-04  -7.2664203614427702e-04  -8.2775272516308926e-04  -9.0733273151557083e-04  -9.6379198990092629e-04  -9.9631583654012689e-04  -1.0048831585189404e-03  -9.9025527420745947e-04  -9.5393607554019851e-04  -8.9810505959685345e-04  -8.2552590918487487e-04  -7.3943421038992485e-04  -6.4340868388338931e-04  -5.4123092611357121e-04  -4.3673908282367300e-04  -3.3368109449839669e-04  -2.3557315322354371e-04  -1.4556879326493031e-04  -6.6343611978672800e-05  -1.5940162795264088e-16  5.2004526066512955e-05  8.8902718672471696e-05  1.1063507780073000e-04  1.1783885673461480e-04  1.1180914773888296e-04  9.4433687070357092e-05  6.8104041708983378e-05  3.5606759891224568e-05  0.0000000000000000e+00  0.0000000000000000e+00  -1.6619998462186748e-04  -3.2770692097917409e-04  -4.8000262352757776e-04  -6.1889621822861169e-04  -7.4066484343906992e-04  -8.4218083546063957e-04  -9.2101670266371148e-04  -9.7552399418526358e-04  -1.0048831585189192e-03  -1.0091225920327487e-03  -9.8910625319392938e-04  -9.4649041832641542e-04  -8.8365133200215347e-04  -8.0358661395389891e-04  -7.0979428193922807e-04  -6.0613409798159271e-04  -4.9667661140603901e-04  -3.8554573065078266e-04  -2.7676088953408894e-04  -1.7408487369685068e-04  -8.0883139511236241e-05  -1.6183826779517718e-16  6.6343611978350901e-05  1.1662693816344083e-04  1.5007787516335341e-04  1.6669137201745746e-04  1.6721714708429043e-04  1.5311731913128710e-04  1.2649571663585506e-04  9.0001729659985272e-05  4.6712557728751830e-05  0.0000000000000000e+00  0.0000000000000000e+00  -1.6660762633296345e-04  -3.2835643972696027e-04  -4.8054502413171684e-04  -6.1881631203922606e-04  -7.3930628359996677e-04  -8.3877819840358955e-04  -9.1473328947587994e-04  -9.6549379755153750e-04  -9.9025527420741307e-04  -9.8910625319390379e-04  -9.6301463446702784e-04  -9.1378139626015838e-04  -8.4396349751364214e-04  -7.5676900774499520e-04  -6.5592855862632690e-04  -5.4554811044605234e-04  -4.2994873275693037e-04  -3.1349958480795680e-04  -2.0045052926208077e-04  -9.4770812834495555e-05  -1.5492188174095554e-16  8.0883139510918515e-05  1.4556879326461263e-04  1.9249721898813435e-04  2.2090976172276622e-04  2.3086789956467747e-04  2.2323968412316824e-04  1.9965420728935187e-04  1.6242596622695855e-04  1.1445216583388695e-04  5.9087047198375794e-05  0.0000000000000000e+00  0.0000000000000000e+00  -1.6387145019838579e-04  -3.2277873245319881e-04  -4.7189763317567203e-04  -6.0676162727851227e-04  -7.2341702061780885e-04  -8.1856278992985558e-04  -8.8966580323212360e-04  -9.3504710792496892e-04  -9.5393607554012327e-04  -9.4649041832636023e-04  -9.1378139626012824e-04  -8.5774486307555560e-04  -7.8110010496794293e-04  -6.8723965524382846e-04  -5.8009437489770996e-04  -4.6397903025135220e-04  -3.4342433820265604e-04  -2.2300195891636847e-04  -1.0714917545288559e-04  -1.3855432385651551e-16  9.4770812834200991e-05  1.7408487369654607e-04  2.3557315322323715e-04  2.7766056907193914e-04  2.9961897444066746e-04  3.0158658346626397e-04  2.8455317006039952e-04  2.5031170272014517e-04  2.0137837753179467e-04  1.4088423486010080e-04  7.2442644883062527e-05  0.0000000000000000e+00  0.0000000000000000e+00  -1.5825202996071875e-04  -3.1149321961646708e-04  -4.5483589303285855e-04  -5.8375965367294964e-04  -6.9427137310036364e-04  -7.8304916558880598e-04  -8.4756091238340366e-04  -8.8615287259077294e-04  -8.9810505959674720e-04  -8.8365133200206543e-04  -8.4396349751357839e-04  -7.8110010496790900e-04  -6.9792195052003833e-04  -5.9797759684041322e-04  -4.8536334982822519e-04  -3.6456311171694081e-04  -2.4027429501750626e-04  -1.1722650908753705e-04  -1.1343773769599869e-16  1.0714917545263253e-04  2.0045052926180804e-04  2.7676088953380396e-04  3.3368109449810742e-04  3.6964318487813332e-04  3.8396478993992769e-04  3.7686867284837699e-04  3.4946674899521567e-04  3.0370926476694929e-04  2.4230117085720720e-04  1.6858899180816495e-04  8.6422633139789315e-05  0.0000000000000000e+00  0.0000000000000000e+00  -1.5008755440281893e-04  -2.9517359989794331e-04  -4.3036419577062565e-04  -5.5113850960943067e-04  -6.5351203134781993e-04  -7.3418319371779822e-04  -7.9065396695102489e-04  -8.2131985724419147e-04  -8.2552590918473587e-04  -8.0358661395377640e-04  -7.5676900774489589e-04  -6.8723965524375777e-04  -5.9797759684037592e-04  -4.9265664213302943e-04  -3.7550156596236821e-04  -2.5112376146015579e-04  -1.2434268896830325e-04  -8.1108237926026868e-17  1.1722650908734162e-04  2.2300195891614491e-04  3.1349958480771133e-04  3.8554573065052266e-04  4.3673908282340651e-04  4.6553958530494649e-04  4.7132364943375628e-04  4.5440357403476431e-04  4.1601047360622718e-04  3.5824142072557203e-04  2.8397288952974577e-04  1.9674388689506003e-04  1.0061332675481398e-04  0.0000000000000000e+00  0.0000000000000000e+00  -1.3977968657020052e-04  -2.7461970713027885e-04  -3.9967399676323322e-04  -5.1047169199832949e-04  -6.0308194306131339e-04  -6.7426169451224470e-04  -7.2157712259289563e-04  -7.4349409547958792e-04  -7.3943421038975257e-04  -7.0979428193907032e-04  -6.5592855862619051e-04  -5.8009437489760110e-04  -4.8536334982814897e-04  -3.7550156596232880e-04  -2.5482335233319164e-04  -1.2802430823832535e-04  -4.3556792903013072e-17  1.2434268896817800e-04  2.4027429501734634e-04  3.4342433820246608e-04  4.2994873275671662e-04  4.9667661140580851e-04  5.4123092611333182e-04  5.6211819989832978e-04  5.5878399416863910e-04  5.3163197771179073e-04  4.8200588615153554e-04  4.1213509028108442e-04  3.2504589317990291e-04  2.2444199548320496e-04  1.1455875487882745e-04  0.0000000000000000e+00  0.0000000000000000e+00  -1.2777730368109653e-04  -2.5072514912784959e-04  -3.6409565639016264e-04  -4.6351456820444383e-04  -5.4514604402894633e-04  -6.0584013543734305e-04  -6.4325385885926722e-04  -6.5594121331707944e-04  -6.4340868388318494e-04  -6.0613409798140026e-04  -5.4554811044587952e-04  -4.6397903025120508e-04  -3.6456311171682518e-04  -2.5112376146007621e-04  -1.2802430823828480e-04  -3.2058956338249377e-18  1.2802430823827840e-04  2.5112376146006987e-04  3.6456311171681900e-04  4.6397903025119890e-04  5.4554811044587345e-04  6.0613409798139484e-04  6.4340868388318006e-04  6.5594121331707489e-04  6.4325385885926310e-04  6.0584013543733958e-04  5.4514604402894329e-04  4.6351456820444145e-04  3.6409565639016091e-04  2.5072514912784851e-04  1.2777730368109598e-04  0.0000000000000000e+00  0.0000000000000000e+00  -1.1455875487882801e-04  -2.2444199548320610e-04  -3.2504589317990454e-04  -4.1213509028108675e-04  -4.8200588615153852e-04  -5.3163197771179420e-04  -5.5878399416864322e-04  -5.6211819989833434e-04  -5.4123092611333681e-04  -4.9667661140581393e-04  -4.2994873275672236e-04  -3.4342433820247205e-04  -2.4027429501735235e-04  -1.2434268896818420e-04  3.7237297192471847e-17  1.2802430823831898e-04  2.5482335233318519e-04  3.7550156596232234e-04  4.8536334982814258e-04  5.8009437489759449e-04  6.5592855862618411e-04  7.0979428193906490e-04  7.3943421038974791e-04  7.4349409547958348e-04  7.2157712259289161e-04  6.7426169451224112e-04  6.0308194306131046e-04  5.1047169199832732e-04  3.9967399676323160e-04  2.7461970713027776e-04  1.3977968657020000e-04  0.0000000000000000e+00  0.0000000000000000e+00  -1.0061332675481454e-04  -1.9674388689506120e-04  -2.8397288952974756e-04  -3.5824142072557442e-04  -4.1601047360623027e-04  -4.5440357403476783e-04  -4.7132364943376030e-04  -4.6553958530495094e-04  -4.3673908282341144e-04  -3.8554573065052792e-04  -3.1349958480771686e-04  -2.2300195891615060e-04  -1.1722650908734747e-04  7.5116991038125248e-17  1.2434268896829710e-04  2.5112376146014961e-04  3.7550156596236176e-04  4.9265664213302292e-04  5.9797759684036941e-04  6.8723965524375105e-04  7.5676900774488982e-04  8.0358661395377108e-04  8.2552590918473132e-04  8.2131985724418714e-04  7.9065396695102098e-04  7.3418319371779486e-04  6.5351203134781689e-04  5.5113850960942850e-04  4.3036419577062402e-04  2.9517359989794222e-04  1.5008755440281839e-04  0.0000000000000000e+00  0.0000000000000000e+00  -8.6422633139789857e-05  -1.6858899180816604e-04  -2.4230117085720891e-04  -3.0370926476695152e-04  -3.4946674899521870e-04  -3.7686867284838046e-04  -3.8396478993993176e-04  -3.6964318487813771e-04  -3.3368109449811230e-04  -2.7676088953380905e-04  -2.0045052926181332e-04  -1.0714917545263800e-04  1.0783020677634488e-16  1.1722650908753129e-04  2.4027429501750035e-04  3.6456311171693479e-04  4.8536334982821890e-04  5.9797759684040671e-04  6.9792195052003183e-04  7.8110010496790249e-04  8.4396349751357253e-04  8.8365133200206023e-04  8.9810505959674275e-04  8.8615287259076882e-04  8.4756091238339997e-04  7.8304916558880272e-04  6.9427137310036082e-04  5.8375965367294736e-04  4.5483589303285687e-04  3.1149321961646600e-04  1.5825202996071818e-04  0.0000000000000000e+00  0.0000000000000000e+00  -7.2442644883063056e-05  -1.4088423486010194e-04  -2.0137837753179635e-04  -2.5031170272014739e-04  -2.8455317006040228e-04  -3.0158658346626723e-04  -2.9961897444067125e-04  -2.7766056907194326e-04  -2.3557315322324159e-04  -1.7408487369655084e-04  -9.4770812834205992e-05  1.3338253114439874e-16  1.0714917545288027e-04  2.2300195891636291e-04  3.4342433820265024e-04  4.6397903025134624e-04  5.8009437489770367e-04  6.8723965524382217e-04  7.8110010496793654e-04  8.5774486307554952e-04  9.1378139626012260e-04  9.4649041832635524e-04  9.5393607554011915e-04  9.3504710792496524e-04  8.8966580323212013e-04  8.1856278992985254e-04  7.2341702061780636e-04  6.0676162727851010e-04  4.7189763317567041e-04  3.2277873245319783e-04  1.6387145019838530e-04  0.0000000000000000e+00  0.0000000000000000e+00  -5.9087047198376303e-05  -1.1445216583388798e-04  -1.6242596622696010e-04  -1.9965420728935393e-04  -2.2323968412317084e-04  -2.3086789956468053e-04  -2.2090976172276969e-04  -1.9249721898813817e-04  -1.4556879326461678e-04  -8.0883139510922933e-05  1.5025547922373772e-16  9.4770812834490690e-05  2.0045052926207576e-04  3.1349958480795148e-04  4.2994873275692484e-04  5.4554811044604649e-04  6.5592855862632062e-04  7.5676900774498935e-04  8.4396349751363628e-04  9.1378139626015296e-04  9.6301463446702264e-04  9.8910625319389902e-04  9.9025527420740916e-04  9.6549379755153425e-04  9.1473328947587669e-04  8.3877819840358651e-04  7.3930628359996395e-04  6.1881631203922389e-04  4.8054502413171526e-04  3.2835643972695930e-04  1.6660762633296302e-04  0.0000000000000000e+00  0.0000000000000000e+00  -4.6712557728752290e-05  -9.0001729659986194e-05  -1.2649571663585647e-04  -1.5311731913128897e-04  -1.6721714708429274e-04  -1.6669137201746025e-04  -1.5007787516335656e-04  -1.1662693816344433e-04  -6.6343611978354695e-05  1.5775544309390321e-16  8.0883139511231931e-05  1.7408487369684618e-04  2.7676088953408433e-04  3.8554573065077767e-04  4.9667661140603381e-04  6.0613409798158718e-04  7.0979428193922232e-04  8.0358661395389338e-04  8.8365133200214827e-04  9.4649041832641076e-04  9.8910625319392482e-04  1.0091225920327443e-03  1.0048831585189153e-03  9.7552399418526043e-04  9.2101670266370845e-04  8.4218083546063675e-04  7.4066484343906732e-04  6.1889621822860952e-04  4.8000262352757624e-04  3.2770692097917317e-04  1.6619998462186702e-04  0.0000000000000000e+00  0.0000000000000000e+00  -3.5606759891224988e-05  -6.8104041708984232e-05  -9.4433687070358393e-05  -1.1180914773888468e-04  -1.1783885673461693e-04  -1.1063507780073253e-04  -8.8902718672474582e-05  -5.2004526066516126e-05  1.5593324934925871e-16  6.6343611978669087e-05  1.4556879326492638e-04  2.3557315322353956e-04  3.3368109449839241e-04  4.3673908282366845e-04  5.4123092611356655e-04  6.4340868388338421e-04  7.3943421038991954e-04  8.2552590918486999e-04  8.9810505959684889e-04  9.5393607554019406e-04  9.9025527420745557e-04  1.0048831585189365e-03  9.9631583654012342e-04  9.6379198990092303e-04  9.0733273151556769e-04  8.2775272516308622e-04  7.2664203614427442e-04  6.0631930081860930e-04  4.6975789927381937e-04  3.2048784524662112e-04  1.6247702735936256e-04  0.0000000000000000e+00  0.0000000000000000e+00  -2.5978906382966370e-05  -4.9174074274871363e-05  -6.6852967370686163e-05  -7.6529475688878125e-05  -7.6076390924268930e-05  -6.3824466926626166e-05  -3.8643192538905517e-05  1.4556444834764899e-16  5.2004526066817900e-05  1.1662693816374967e-04  1.9249721898844025e-04  2.7766056907223562e-04  3.6964318487841462e-04  4.6553958530520714e-04  5.6211819989856571e-04  6.5594121331728305e-04  7.4349409547976204e-04  8.213198572443350