<?xml version="1.0"?>
<VTKFile type="UnstructuredGrid"  version="0.1"  >
<UnstructuredGrid>
<Piece  NumberOfPoints="1089" NumberOfCells="2048">
<Points>
<DataArray  type="Float64"  NumberOfComponents="3"  format="ascii">0 0 0  0.03125 0 0  0.0625 0 0  0.09375 0 0  0.125 0 0  0.15625 0 0  0.1875 0 0  0.21875 0 0  0.25 0 0  0.28125 0 0  0.3125 0 0  0.34375 0 0  0.375 0 0  0.40625 0 0  0.4375 0 0  0.46875 0 0  0.5 0 0  0.53125 0 0  0.5625 0 0  0.59375 0 0  0.625 0 0  0.65625 0 0  0.6875 0 0  0.71875 0 0  0.75 0 0  0.78125 0 0  0.8125 0 0  0.84375 0 0  0.875 0 0  0.90625 0 0  0.9375 0 0  0.96875 0 0  1 0 0  0 0.03125 0  0.03125 0.03125 0  0.0625 0.03125 0  0.09375 0.03125 0  0.125 0.03125 0  0.15625 0.03125 0  0.1875 0.03125 0  0.21875 0.03125 0  0.25 0.03125 0  0.28125 0.03125 0  0.3125 0.03125 0  0.34375 0.03125 0  0.375 0.03125 0  0.40625 0.03125 0  0.4375 0.03125 0  0.46875 0.03125 0  0.5 0.03125 0  0.53125 0.03125 0  0.5625 0.03125 0  0.59375 0.03125 0  0.625 0.03125 0  0.65625 0.03125 0  0.6875 0.03125 0  0.71875 0.03125 0  0.75 0.03125 0  0.78125 0.03125 0  0.8125 0.03125 0  0.84375 0.03125 0  0.875 0.03125 0  0.90625 0.03125 0  0.9375 0.03125 0  0.96875 0.03125 0  1 0.03125 0  0 0.0625 0  0.03125 0.0625 0  0.0625 0.0625 0  0.09375 0.0625 0  0.125 0.0625 0  0.15625 0.0625 0  0.1875 0.0625 0  0.21875 0.0625 0  0.25 0.0625 0  0.28125 0.0625 0  0.3125 0.0625 0  0.34375 0.0625 0  0.375 0.0625 0  0.40625 0.0625 0  0.4375 0.0625 0  0.46875 0.0625 0  0.5 0.0625 0  0.53125 0.0625 0  0.5625 0.0625 0  0.59375 0.0625 0  0.625 0.0625 0  0.65625 0.0625 0  0.6875 0.0625 0  0.71875 0.0625 0  0.75 0.0625 0  0.78125 0.0625 0  0.8125 0.0625 0  0.84375 0.0625 0  0.875 0.0625 0  0.90625 0.0625 0  0.9375 0.0625 0  0.96875 0.0625 0  1 0.0625 0  0 0.09375 0  0.03125 0.09375 0  0.0625 0.09375 0  0.09375 0.09375 0  0.125 0.09375 0  0.15625 0.09375 0  0.1875 0.09375 0  0.21875 0.09375 0  0.25 0.09375 0  0.28125 0.09375 0  0.3125 0.09375 0  0.34375 0.09375 0  0.375 0.09375 0  0.40625 0.09375 0  0.4375 0.09375 0  0.46875 0.09375 0  0.5 0.09375 0  0.53125 0.09375 0  0.5625 0.09375 0  0.59375 0.09375 0  0.625 0.09375 0  0.65625 0.09375 0  0.6875 0.09375 0  0.71875 0.09375 0  0.75 0.09375 0  0.78125 0.09375 0  0.8125 0.09375 0  0.84375 0.09375 0  0.875 0.09375 0  0.90625 0.09375 0  0.9375 0.09375 0  0.96875 0.09375 0  1 0.09375 0  0 0.125 0  0.03125 0.125 0  0.0625 0.125 0  0.09375 0.125 0  0.125 0.125 0  0.15625 0.125 0  0.1875 0.125 0  0.21875 0.125 0  0.25 0.125 0  0.28125 0.125 0  0.3125 0.125 0  0.34375 0.125 0  0.375 0.125 0  0.40625 0.125 0  0.4375 0.125 0  0.46875 0.125 0  0.5 0.125 0  0.53125 0.125 0  0.5625 0.125 0  0.59375 0.125 0  0.625 0.125 0  0.65625 0.125 0  0.6875 0.125 0  0.71875 0.125 0  0.75 0.125 0  0.78125 0.125 0  0.8125 0.125 0  0.84375 0.125 0  0.875 0.125 0  0.90625 0.125 0  0.9375 0.125 0  0.96875 0.125 0  1 0.125 0  0 0.15625 0  0.03125 0.15625 0  0.0625 0.15625 0  0.09375 0.15625 0  0.125 0.15625 0  0.15625 0.15625 0  0.1875 0.15625 0  0.21875 0.15625 0  0.25 0.15625 0  0.28125 0.15625 0  0.3125 0.15625 0  0.34375 0.15625 0  0.375 0.15625 0  0.40625 0.15625 0  0.4375 0.15625 0  0.46875 0.15625 0  0.5 0.15625 0  0.53125 0.15625 0  0.5625 0.15625 0  0.59375 0.15625 0  0.625 0.15625 0  0.65625 0.15625 0  0.6875 0.15625 0  0.71875 0.15625 0  0.75 0.15625 0  0.78125 0.15625 0  0.8125 0.15625 0  0.84375 0.15625 0  0.875 0.15625 0  0.90625 0.15625 0  0.9375 0.15625 0  0.96875 0.15625 0  1 0.15625 0  0 0.1875 0  0.03125 0.1875 0  0.0625 0.1875 0  0.09375 0.1875 0  0.125 0.1875 0  0.15625 0.1875 0  0.1875 0.1875 0  0.21875 0.1875 0  0.25 0.1875 0  0.28125 0.1875 0  0.3125 0.1875 0  0.34375 0.1875 0  0.375 0.1875 0  0.40625 0.1875 0  0.4375 0.1875 0  0.46875 0.1875 0  0.5 0.1875 0  0.53125 0.1875 0  0.5625 0.1875 0  0.59375 0.1875 0  0.625 0.1875 0  0.65625 0.1875 0  0.6875 0.1875 0  0.71875 0.1875 0  0.75 0.1875 0  0.78125 0.1875 0  0.8125 0.1875 0  0.84375 0.1875 0  0.875 0.1875 0  0.90625 0.1875 0  0.9375 0.1875 0  0.96875 0.1875 0  1 0.1875 0  0 0.21875 0  0.03125 0.21875 0  0.0625 0.21875 0  0.09375 0.21875 0  0.125 0.21875 0  0.15625 0.21875 0  0.1875 0.21875 0  0.21875 0.21875 0  0.25 0.21875 0  0.28125 0.21875 0  0.3125 0.21875 0  0.34375 0.21875 0  0.375 0.21875 0  0.40625 0.21875 0  0.4375 0.21875 0  0.46875 0.21875 0  0.5 0.21875 0  0.53125 0.21875 0  0.5625 0.21875 0  0.59375 0.21875 0  0.625 0.21875 0  0.65625 0.21875 0  0.6875 0.21875 0  0.71875 0.21875 0  0.75 0.21875 0  0.78125 0.21875 0  0.8125 0.21875 0  0.84375 0.21875 0  0.875 0.21875 0  0.90625 0.21875 0  0.9375 0.21875 0  0.96875 0.21875 0  1 0.21875 0  0 0.25 0  0.03125 0.25 0  0.0625 0.25 0  0.09375 0.25 0  0.125 0.25 0  0.15625 0.25 0  0.1875 0.25 0  0.21875 0.25 0  0.25 0.25 0  0.28125 0.25 0  0.3125 0.25 0  0.34375 0.25 0  0.375 0.25 0  0.40625 0.25 0  0.4375 0.25 0  0.46875 0.25 0  0.5 0.25 0  0.53125 0.25 0  0.5625 0.25 0  0.59375 0.25 0  0.625 0.25 0  0.65625 0.25 0  0.6875 0.25 0  0.71875 0.25 0  0.75 0.25 0  0.78125 0.25 0  0.8125 0.25 0  0.84375 0.25 0  0.875 0.25 0  0.90625 0.25 0  0.9375 0.25 0  0.96875 0.25 0  1 0.25 0  0 0.28125 0  0.03125 0.28125 0  0.0625 0.28125 0  0.09375 0.28125 0  0.125 0.28125 0  0.15625 0.28125 0  0.1875 0.28125 0  0.21875 0.28125 0  0.25 0.28125 0  0.28125 0.28125 0  0.3125 0.28125 0  0.34375 0.28125 0  0.375 0.28125 0  0.40625 0.28125 0  0.4375 0.28125 0  0.46875 0.28125 0  0.5 0.28125 0  0.53125 0.28125 0  0.5625 0.28125 0  0.59375 0.28125 0  0.625 0.28125 0  0.65625 0.28125 0  0.6875 0.28125 0  0.71875 0.28125 0  0.75 0.28125 0  0.78125 0.28125 0  0.8125 0.28125 0  0.84375 0.28125 0  0.875 0.28125 0  0.90625 0.28125 0  0.9375 0.28125 0  0.96875 0.28125 0  1 0.28125 0  0 0.3125 0  0.03125 0.3125 0  0.0625 0.3125 0  0.09375 0.3125 0  0.125 0.3125 0  0.15625 0.3125 0  0.1875 0.3125 0  0.21875 0.3125 0  0.25 0.3125 0  0.28125 0.3125 0  0.3125 0.3125 0  0.34375 0.3125 0  0.375 0.3125 0  0.40625 0.3125 0  0.4375 0.3125 0  0.46875 0.3125 0  0.5 0.3125 0  0.53125 0.3125 0  0.5625 0.3125 0  0.59375 0.3125 0  0.625 0.3125 0  0.65625 0.3125 0  0.6875 0.3125 0  0.71875 0.3125 0  0.75 0.3125 0  0.78125 0.3125 0  0.8125 0.3125 0  0.84375 0.3125 0  0.875 0.3125 0  0.90625 0.3125 0  0.9375 0.3125 0  0.96875 0.3125 0  1 0.3125 0  0 0.34375 0  0.03125 0.34375 0  0.0625 0.34375 0  0.09375 0.34375 0  0.125 0.34375 0  0.15625 0.34375 0  0.1875 0.34375 0  0.21875 0.34375 0  0.25 0.34375 0  0.28125 0.34375 0  0.3125 0.34375 0  0.34375 0.34375 0  0.375 0.34375 0  0.40625 0.34375 0  0.4375 0.34375 0  0.46875 0.34375 0  0.5 0.34375 0  0.53125 0.34375 0  0.5625 0.34375 0  0.59375 0.34375 0  0.625 0.34375 0  0.65625 0.34375 0  0.6875 0.34375 0  0.71875 0.34375 0  0.75 0.34375 0  0.78125 0.34375 0  0.8125 0.34375 0  0.84375 0.34375 0  0.875 0.34375 0  0.90625 0.34375 0  0.9375 0.34375 0  0.96875 0.34375 0  1 0.34375 0  0 0.375 0  0.03125 0.375 0  0.0625 0.375 0  0.09375 0.375 0  0.125 0.375 0  0.15625 0.375 0  0.1875 0.375 0  0.21875 0.375 0  0.25 0.375 0  0.28125 0.375 0  0.3125 0.375 0  0.34375 0.375 0  0.375 0.375 0  0.40625 0.375 0  0.4375 0.375 0  0.46875 0.375 0  0.5 0.375 0  0.53125 0.375 0  0.5625 0.375 0  0.59375 0.375 0  0.625 0.375 0  0.65625 0.375 0  0.6875 0.375 0  0.71875 0.375 0  0.75 0.375 0  0.78125 0.375 0  0.8125 0.375 0  0.84375 0.375 0  0.875 0.375 0  0.90625 0.375 0  0.9375 0.375 0  0.96875 0.375 0  1 0.375 0  0 0.40625 0  0.03125 0.40625 0  0.0625 0.40625 0  0.09375 0.40625 0  0.125 0.40625 0  0.15625 0.40625 0  0.1875 0.40625 0  0.21875 0.40625 0  0.25 0.40625 0  0.28125 0.40625 0  0.3125 0.40625 0  0.34375 0.40625 0  0.375 0.40625 0  0.40625 0.40625 0  0.4375 0.40625 0  0.46875 0.40625 0  0.5 0.40625 0  0.53125 0.40625 0  0.5625 0.40625 0  0.59375 0.40625 0  0.625 0.40625 0  0.65625 0.40625 0  0.6875 0.40625 0  0.71875 0.40625 0  0.75 0.40625 0  0.78125 0.40625 0  0.8125 0.40625 0  0.84375 0.40625 0  0.875 0.40625 0  0.90625 0.40625 0  0.9375 0.40625 0  0.96875 0.40625 0  1 0.40625 0  0 0.4375 0  0.03125 0.4375 0  0.0625 0.4375 0  0.09375 0.4375 0  0.125 0.4375 0  0.15625 0.4375 0  0.1875 0.4375 0  0.21875 0.4375 0  0.25 0.4375 0  0.28125 0.4375 0  0.3125 0.4375 0  0.34375 0.4375 0  0.375 0.4375 0  0.40625 0.4375 0  0.4375 0.4375 0  0.46875 0.4375 0  0.5 0.4375 0  0.53125 0.4375 0  0.5625 0.4375 0  0.59375 0.4375 0  0.625 0.4375 0  0.65625 0.4375 0  0.6875 0.4375 0  0.71875 0.4375 0  0.75 0.4375 0  0.78125 0.4375 0  0.8125 0.4375 0  0.84375 0.4375 0  0.875 0.4375 0  0.90625 0.4375 0  0.9375 0.4375 0  0.96875 0.4375 0  1 0.4375 0  0 0.46875 0  0.03125 0.46875 0  0.0625 0.46875 0  0.09375 0.46875 0  0.125 0.46875 0  0.15625 0.46875 0  0.1875 0.46875 0  0.21875 0.46875 0  0.25 0.46875 0  0.28125 0.46875 0  0.3125 0.46875 0  0.34375 0.46875 0  0.375 0.46875 0  0.40625 0.46875 0  0.4375 0.46875 0  0.46875 0.46875 0  0.5 0.46875 0  0.53125 0.46875 0  0.5625 0.46875 0  0.59375 0.46875 0  0.625 0.46875 0  0.65625 0.46875 0  0.6875 0.46875 0  0.71875 0.46875 0  0.75 0.46875 0  0.78125 0.46875 0  0.8125 0.46875 0  0.84375 0.46875 0  0.875 0.46875 0  0.90625 0.46875 0  0.9375 0.46875 0  0.96875 0.46875 0  1 0.46875 0  0 0.5 0  0.03125 0.5 0  0.0625 0.5 0  0.09375 0.5 0  0.125 0.5 0  0.15625 0.5 0  0.1875 0.5 0  0.21875 0.5 0  0.25 0.5 0  0.28125 0.5 0  0.3125 0.5 0  0.34375 0.5 0  0.375 0.5 0  0.40625 0.5 0  0.4375 0.5 0  0.46875 0.5 0  0.5 0.5 0  0.53125 0.5 0  0.5625 0.5 0  0.59375 0.5 0  0.625 0.5 0  0.65625 0.5 0  0.6875 0.5 0  0.71875 0.5 0  0.75 0.5 0  0.78125 0.5 0  0.8125 0.5 0  0.84375 0.5 0  0.875 0.5 0  0.90625 0.5 0  0.9375 0.5 0  0.96875 0.5 0  1 0.5 0  0 0.53125 0  0.03125 0.53125 0  0.0625 0.53125 0  0.09375 0.53125 0  0.125 0.53125 0  0.15625 0.53125 0  0.1875 0.53125 0  0.21875 0.53125 0  0.25 0.53125 0  0.28125 0.53125 0  0.3125 0.53125 0  0.34375 0.53125 0  0.375 0.53125 0  0.40625 0.53125 0  0.4375 0.53125 0  0.46875 0.53125 0  0.5 0.53125 0  0.53125 0.53125 0  0.5625 0.53125 0  0.59375 0.53125 0  0.625 0.53125 0  0.65625 0.53125 0  0.6875 0.53125 0  0.71875 0.53125 0  0.75 0.53125 0  0.78125 0.531
[...]
<PointData  Scalars="theta"> 
<DataArray  type="Float64"  Name="theta"  format="ascii">0.0000000000000000e+00  4.8876765415834068e-06  -6.6513107940673318e-05  -3.5635878423294736e-05  0.0000000000000000e+00  4.6596046602811005e-05  2.5132119945343950e-05  0.0000000000000000e+00  -8.4957614246292942e-05  -7.8612044151849940e-05  -4.0969156693090225e-05  1.6620621779381618e-16  3.0443037424182015e-05  4.7625993443976224e-05  4.4479947541241391e-05  1.1700893136988422e-05  -2.0118259496458585e-05  -1.2421396507420642e-04  0.0000000000000000e+00  -7.6260667876011797e-05  -1.0634056427400393e-04  0.0000000000000000e+00  -3.0495600424101275e-05  5.9971686667869631e-05  3.0495600424582448e-05  0.0000000000000000e+00  1.0634056427456154e-04  6.0432187528232892e-05  0.0000000000000000e+00  1.6388004814914083e-04  1.2587678611295503e-04  1.0262889370192252e-04  8.5800148808037587e-05  1.3446672799007746e-16  4.0908338424162333e-05  4.5016162048908662e-06  -6.2075221962872132e-05  -3.2821126034223032e-05  3.0520979708965436e-05  4.3708254902330616e-05  2.1674977402635331e-05  -2.4611570790496081e-05  -7.9350186064826230e-05  -7.3707977873612059e-05  -3.7733147457949645e-05  1.4772698358018022e-16  2.6255331809323671e-05  4.1074622193480684e-05  3.9534552721870068e-05  1.0776680843961809e-05  -1.8863219266454594e-05  -1.1601551347610004e-04  -2.1586884461911505e-04  -6.5770347130173702e-05  -9.9750103895411533e-05  -6.4144217014143202e-05  -2.8086860470218056e-05  5.5970257241871136e-05  2.8086860470661224e-05  1.7106362772399531e-04  9.9750103895934592e-05  5.2119212462573746e-05  2.1586884461979105e-04  1.5306352971787251e-04  1.1802419674640592e-04  9.4522599244861009e-05  0.0000000000000000e+00  1.2574583470101736e-16  3.8247283515790463e-05  4.0862115868794076e-06  -5.7891835763625372e-05  -2.9792425518141853e-05  2.8535614231131957e-05  4.0981596649644770e-05  1.7886385560389413e-05  -2.3010607667141542e-05  -7.4236746264057018e-05  -6.8927617562951365e-05  -3.4251170542834196e-05  1.2740584709222253e-16  2.1666135056750847e-05  3.3895146262556123e-05  3.4096229794119795e-05  9.7822195692415038e-06  -1.7639837655480673e-05  -1.0853930738843297e-04  -2.0182674780789452e-04  -5.4274279753939099e-05  -9.3527379043996996e-05  -5.9971686666923374e-05  -2.5495033221130097e-05  5.2198298087959776e-05  2.5495033221532366e-05  1.5993607466918903e-04  9.3527379044487408e-05  4.3009241112108531e-05  2.0182674780852650e-04  1.4319989632618555e-04  1.1036969038087294e-04  -4.8876765415602676e-06  -3.4502147026254143e-05  1.1692662957063706e-16  3.5695349190978720e-05  3.6318960867572033e-06  -5.4007565648372630e-05  -2.6480027123847060e-05  2.6631661669221312e-05  3.8323718849396457e-05  1.3776013089835054e-05  -2.1475294459438536e-05  -6.9567672737466557e-05  -6.4093367586549115e-05  -3.0443037423907224e-05  1.0513644657652289e-16  1.6687159020485508e-05  2.6105888024068794e-05  2.8136514328227838e-05  8.6946072708046619e-06  -1.6402664693686871e-05  -1.0171279582609689e-04  -1.8836046842668174e-04  -4.1801804272151491e-05  -8.7461623563515908e-05  -5.5970257240988013e-05  -2.2660429940751370e-05  4.8696037593786438e-05  2.2660429941108916e-05  1.4926482376700529e-04  8.7461623563974525e-05  3.3125522568204087e-05  1.8836046842727157e-04  1.3419342879366646e-04  4.6684843909406942e-06  -4.5016162048695557e-06  -3.2257809777901058e-05  1.0769100736930776e-16  3.3289760834449790e-05  3.1322970676720094e-06  -5.0442922875434685e-05  -2.2837468179316409e-05  2.4836895217050345e-05  3.5635878423544834e-05  9.3807424336581005e-06  -2.0028026972902450e-05  -6.5256213663149456e-05  -5.9030858465966861e-05  -2.6255331809086678e-05  8.0975614629733540e-17  1.1363080137908262e-05  1.7776740625806208e-05  2.1670615808840896e-05  7.4985881226622785e-06  -1.5107076043246400e-05  -9.5409141567120786e-05  -1.7566644077469625e-04  -2.8464836421256411e-05  -8.1327487979011232e-05  -5.2198298087136176e-05  -1.9543289940042704e-05  4.5481969779481322e-05  1.9543289940351065e-05  1.3920553788715180e-04  8.1327487979437690e-05  2.2556743606895900e-05  1.7566644077524632e-04  2.0723059115807241e-06  4.3552510279964749e-06  -4.0862115868600631e-06  -3.0105504974829551e-05  9.7753389468671764e-17  3.1056174328726810e-05  2.5847996056155947e-06  -4.7192308575832988e-05  -1.8845683365220629e-05  2.3170456269749447e-05  3.2821126034453385e-05  4.7618313809093633e-06  -1.8684240485357681e-05  -6.1185326048870226e-05  -5.3583550189152550e-05  -2.1666135056555277e-05  5.5140146811357462e-17  5.7681011889140150e-06  9.0237891042106378e-06  1.4756552854286659e-05  6.1879021061487681e-06  -1.3713010252787266e-05  -8.9457219583116102e-05  -1.6388004814862765e-04  -1.4449256258956223e-05  -7.4903716453949523e-05  -4.8696037593018091e-05  -1.6127297966344486e-05  4.2551046412801601e-05  1.6127297966598952e-05  1.2986550049568792e-04  7.4903716454342303e-05  1.1450203469295934e-05  -5.0877818987332095e-06  1.4111316440770448e-06  4.0677928929204320e-06  -3.6318960867400098e-06  -2.8076628556016511e-05  8.6884916536995630e-17  2.9006384340102641e-05  1.9908009408238252e-06  -4.4224177970453901e-05  -1.4514859911166640e-05  2.1641144616908348e-05  2.9792425518350944e-05  0.0000000000000000e+00  -1.7451030989347528e-05  -5.7217127318192994e-05  -4.7625993443761607e-05  -1.6687159020334875e-05  2.7990117337853465e-17  0.0000000000000000e+00  0.0000000000000000e+00  7.4906881787381251e-06  4.7658941559273559e-06  -1.2188362549476884e-05  -8.3655435918253369e-05  -1.5306352971739321e-04  0.0000000000000000e+00  -6.7991676798639572e-05  -4.5481969778763695e-05  -1.2421171797841698e-05  3.9874825075890386e-05  1.2421171798037685e-05  1.2129403254969892e-04  6.7991676798996099e-05  -1.3450488210475066e-05  -4.6859159454254977e-06  7.1631547213688289e-07  3.8056584845278371e-06  -3.1322970676571812e-06  -2.6192818726898783e-05  7.4933137620892570e-17  2.7137171329815354e-05  1.3556310335050741e-06  -4.1483382915623216e-05  -9.8838583702967452e-06  2.0246558218233796e-05  2.6480027124032902e-05  1.6539658107206855e-05  -1.6326461522648545e-05  -5.3204194532069070e-05  -4.1074622193295583e-05  -1.1363080137805691e-05  0.0000000000000000e+00  1.3481350825964415e-04  1.1190930339711967e-04  0.0000000000000000e+00  3.2453239737278877e-06  -1.0511746856595020e-05  -7.7788247940308416e-05  -1.4319989632573712e-04  -1.7106362772309830e-04  -6.0432187527916007e-05  -4.2551046412130222e-05  -8.4581665682175990e-06  3.7403581326526529e-05  8.4581665683510575e-06  1.1347767112203040e-04  -5.0058389231084747e-06  -1.2604528203016439e-05  -4.2535043326299834e-06  0.0000000000000000e+00  3.5663039845589131e-06  -2.5847996056033580e-06  -2.4464023124712131e-05  6.1835496565456547e-17  2.5430395984464090e-05  6.8814237699539522e-07  -3.8895519167025464e-05  -5.0172219613740332e-06  1.8973163656394042e-05  2.2837468179476685e-05  1.5463766489888576e-05  -1.5299618980181086e-05  -4.9001782797218079e-05  -3.3895146262403373e-05  -5.7681011888619496e-06  8.6174216650439497e-05  1.2604399667133514e-04  1.0462969213523841e-04  2.4611570790556200e-05  1.6473840582028039e-06  -8.6743876912835941e-06  -7.1644028506992672e-05  -1.3419342879324622e-04  -1.5993607466835037e-04  -5.2119212462300452e-05  -3.9874825075261230e-05  -4.2935154945716703e-06  3.5070228417976944e-05  4.2935154946394160e-06  0.0000000000000000e+00  -4.6684843909070518e-06  -1.1823362104454204e-05  -3.7805887953250421e-06  2.0276141422507409e-05  3.3452821640644229e-06  -1.9908009408144007e-06  -2.2887526386183464e-05  4.7625419189702079e-17  2.3854346258832749e-05  0.0000000000000000e+00  -3.6372934754149359e-05  0.0000000000000000e+00  1.7797301141579629e-05  1.8845683365352891e-05  1.4431993436512692e-05  -1.4351424531667211e-05  -4.4479947541106469e-05  -2.6105888023951148e-05  0.0000000000000000e+00  8.0568652332107038e-05  1.1763409217683057e-04  9.7648592349572195e-05  2.3010607667197751e-05  0.0000000000000000e+00  -6.6809740837782337e-06  -6.5032789578535214e-05  -1.2587678611256084e-04  -1.4926482376622258e-04  -4.3009241111883010e-05  -3.7403581325936364e-05  0.0000000000000000e+00  3.2795734762723368e-05  1.4596274546557961e-17  2.7246126912464524e-06  -4.3552510279650881e-06  -1.1085783632638251e-05  -3.2605357958474902e-06  1.8957194534570827e-05  3.1365929532828081e-06  -1.3556310334986566e-06  -2.1448029790269086e-05  3.2430412761675322e-17  2.2366237199470513e-05  -1.6539658107151882e-05  -3.3821912896817114e-05  -3.0520979708323480e-05  1.6687049585170871e-05  1.4514859911268511e-05  1.3459389549473227e-05  -1.3456137583595031e-05  -3.9534552721750155e-05  -1.7776740625726096e-05  4.1816645661126649e-16  7.5192952661691430e-05  1.0970647110335604e-04  9.1067838214606680e-05  2.1475294459490991e-05  -3.4501241788653275e-05  -4.5493929685732405e-06  -5.7802276989176678e-05  -1.1802419674603631e-04  -1.3920553788642187e-04  -3.3125522568030391e-05  -3.5070228417423595e-05  6.4144217015155291e-05  -1.5171862810059402e-06  7.4093280645660169e-18  2.5473788006817041e-06  -4.0677928928911162e-06  -1.0366810712489698e-05  -2.6906233531246337e-06  1.7692333059770084e-05  2.9331679659594337e-06  -6.8814237699213754e-07  -2.0118787355863528e-05  1.6462253204000236e-17  2.0915665962928032e-05  -1.5463766489837184e-05  -3.1150439248869670e-05  -2.8535614230531760e-05  1.5604804327055658e-05  9.8838583703661138e-06  1.2556327763524258e-05  -1.2583434412308652e-05  -3.4096229794016376e-05  -9.0237891041699717e-06  3.9096506088739044e-16  7.0125533641688927e-05  1.0234568246130109e-04  8.4957614246550630e-05  2.0028026972951371e-05  -3.2256963425286812e-05  -2.3093526290746493e-06  -4.9851069081555202e-05  -1.1036969038052730e-04  -1.2986550049500696e-04  -2.2556743606777623e-05  -3.2795734762205906e-05  -5.2760613342086076e-07  -1.0331242888044290e-06  0.0000000000000000e+00  2.3774126540121357e-06  -3.8056584845004110e-06  -9.6397327107518710e-06  -2.0723059115166401e-06  1.6500007690414374e-05  2.7274497404996172e-06  0.0000000000000000e+00  -1.8863714196331556e-05  0.0000000000000000e+00  1.9448742235361542e-05  -1.4431993436464730e-05  -2.8275908029836177e-05  -2.6631661668661162e-05  1.4510358767829217e-05  5.0172219614092452e-06  1.1727576782443231e-05  -1.1700893136959841e-05  -2.8136514328142497e-05  0.0000000000000000e+00  3.6487909955973864e-16  6.5420439891462578e-05  9.5590595596206087e-05  7.9350186065066909e-05  1.8684240485403319e-05  -3.0104715092533949e-05  0.0000000000000000e+00  -4.1137548871533912e-05  -1.0262889370160113e-04  -1.2129403254906290e-04  -1.1450203469235893e-05  1.2989955170027446e-07  -3.5927210665118541e-07  -5.2443222842972483e-07  7.8349070156695820e-06  2.2171935686473251e-06  -3.5663039845332120e-06  -8.8783242124036268e-06  -1.4111316440334069e-06  1.5392934716687973e-05  2.5120181021391646e-06  -4.0908338423900044e-05  -1.7640300486483014e-05  3.4502147026687384e-05  1.7912554659986988e-05  -1.3459389549428497e-05  -2.5132119945236536e-05  -2.4836895216527943e-05  1.3364236690441721e-05  0.0000000000000000e+00  1.0971834913899529e-05  -1.0776680843935487e-05  -2.1670615808775169e-05  -8.6174216649661636e-05  3.4028909180423244e-16  6.1102517106721225e-05  8.9430600511865050e-05  7.4236746264282180e-05  1.7451030989390154e-05  -2.8075891905631966e-05  -1.6361921679330796e-04  -3.1683953687826147e-05  -9.4522599244565008e-05  -1.1347767112143536e-04  0.0000000000000000e+00  6.5939318345745516e-08  -1.8237289892948180e-07  0.0000000000000000e+00  7.3252525399852229e-06  2.0684302999613700e-06  -3.3452821640403146e-06  -8.0590413792672920e-06  -7.1631547211473150e-07  1.4376960142877486e-05  2.2802115969503713e-06  -3.8247283515545237e-05  -1.6403095063959517e-05  3.2257809778306109e-05  1.6259602123061048e-05  -1.2556327763482530e-05  -2.1674977402542693e-05  -2.3170456269262091e-05  1.2130998363421293e-05  7.1140757700300099e-05  1.0281768248633890e-05  -9.7822195692176073e-06  -1.4756552854241901e-05  -8.0568652331379782e-05  3.1745729294336135e-16  5.7164983265963310e-05  8.3805919065943401e-05  6.9567672737677570e-05  1.6326461522688426e-05  -2.6192131502293127e-05  -1.5297591675414953e-04  -2.1575110802178216e-05  -8.5800148807768908e-05  1.5522719724722074e-06  9.8511952526588713e-07  0.0000000000000000e+00  0.0000000000000000e+00  1.1069380043076280e-16  6.8364972173494333e-06  1.9319084065642860e-06  -3.1365929532602038e-06  -7.1630164581683131e-06  0.0000000000000000e+00  1.3450488210617581e-05  2.0266918146220929e-06  -3.5695349190749859e-05  -1.5107472420088640e-05  3.0105504975207575e-05  1.4451817794406669e-05  -1.1727576782404257e-05  -1.7886385560312966e-05  -2.1641144616453160e-05  1.0782242805545666e-05  6.6513107940957569e-05  9.6445552835992865e-06  -8.6946072707834234e-06  -7.4906881787154051e-06  -7.5192952661012693e-05  2.9650426846574182e-16  5.3569627549998655e-05  7.8612044152204203e-05  6.5256213663347391e-05  1.5299618980218461e-05  -2.4463381258755668e-05  -1.4276906133987453e-04  -1.0951909232236069e-05  -1.1801052915756236e-06  1.4476609386042696e-06  9.2103828293184499e-07  -2.7246126912133376e-06  -7.8349070155068602e-06  1.0349325667099386e-16  6.3757705826971355e-06  1.8074134579387599e-06  -2.9331679659382947e-06  -6.1776809995794548e-06  1.0701602254243287e-05  1.2604528203149988e-05  1.7479026592095418e-06  -3.3289760834236344e-05  -1.3713370052372973e-05  2.8076628556369056e-05  1.2463844068944133e-05  -1.0971834913863066e-05  -1.3776013089776179e-05  -2.0246558217807938e-05  9.2990511611507149e-06  6.2075221963137436e-05  9.0428976261093138e-06  -7.4985881226439623e-06  0.0000000000000000e+00  -7.0125533641055942e-05  2.7739710813429604e-16  5.0249647914057190e-05  7.3707977873944204e-05  6.1185326049055801e-05  1.4351424531702266e-05  -2.2886925882989853e-05  -1.3314753922520736e-04  -4.6834793236509338e-07  -1.1058833105113376e-06  1.3505296929516241e-06  8.5958478891549055e-07  -2.5473788006507438e-06  -7.3252525398330873e-06  9.6587982104860991e-17  5.9479863397307287e-06  1.6937373237767349e-06  -2.7274497404799614e-06  -5.0978777128568259e-06  1.0005471531190565e-05  1.1823362104579477e-05  1.4423849355824769e-06  -3.1056174328527690e-05  -1.2188682345620466e-05  2.6192818727227672e-05  1.0285275801699450e-05  -1.0281768248599723e-05  -9.3807424336180087e-06  -1.8973163655994971e-05  7.6736603376530365e-06  5.7891835763872800e-05  8.4564168929199590e-06  -6.1879021061336536e-06  -1.3481350825903662e-04  -6.5420439890872081e-05  2.5995039125724351e-16  4.7114917015155159e-05  6.8927617563261989e-05  5.7217127318366541e-05  1.3456137583627899e-05  -2.1447467055346648e-05  3.8431065592323668e-08  -4.3135478052294060e-07  -1.0373461517043549e-06  1.2613911463087026e-06  8.0165547300934207e-07  -2.3774126539832413e-06  -6.8364972172074494e-06  9.0078704834902223e-17  5.5554034438916962e-06  1.5887678908956790e-06  -2.5120181021210614e-06  -3.9263623086723327e-06  9.3378867019090196e-06  1.1085783632755709e-05  1.1109183398779697e-06  -2.9006384339916667e-05  -1.0512022661986710e-05  2.4464023125019316e-05  7.9216728051841554e-06  -9.6445552835672364e-06  -4.7618313808890117e-06  -1.7797301141205291e-05  5.9102184117378942e-06  5.4007565648603457e-05  7.8633246809671832e-06  -4.7658941559157151e-06  -1.2604399667076716e-04  -6.1102517106169705e-05  2.4383995620664390e-16  4.4059260275724353e-05  6.4093367586837946e-05  5.3204194532230447e-05  1.2583434412339391e-05  1.6150136639628171e-07  2.6169540158075222e-08  -3.9154979500776759e-07  -9.7263323988124375e-07  1.1801052916466433e-06  7.4786815817529630e-07  -2.2171935686203780e-06  -6.3757705825647188e-06  8.4034847068161193e-17  5.1974052779375731e-06  1.4896555586601955e-06  -2.2802115969339384e-06  -2.6736468148433889e-06  8.7085859096821219e-06  1.0366810712599540e-05  7.5647712754511167e-07  -2.7137171329641370e-05  -8.6746152883640331e-06  2.2887526386470853e-05  5.3942437296302074e-06  -9.0428976260792627e-06  0.0000000000000000e+00  -1.6687049584819884e-05  4.0245487780558481e-06  5.0442922875650279e-05  7.2422283895023823e-06  -3.2453239737199612e-06  -1.1763409217630049e-04  -5.7164983265447324e-05  2.2862845370188600e-16  4.0969156693460040e-05  5.9030858466232890e-05  4.9001782797366716e-05  1.1677947674351574e-17  1.5066538369179621e-07  1.3284123130976501e-08  -3.4801628305922198e-07  -9.0955272307843268e-07  1.1058833105778907e-06  6.9850687345258242e-07  -2.0684302999362309e-06  -5.9479863396071957e-06  7.8488323971253347e-17  4.8705177375830590e-06  1.3930433531078346e-06  -2.0266918146074871e-06  -1.3571905842664603e-06  8.1242807214133581e-06  9.6397327108540079e-06  3.8400121849201785e-07  -2.5430395984301046e-05  -6.6811493780180203e-06  2.1448029790538399e-05  2.7382138726955773e-06  -8.4564168928918578e-06  -7.4956239171697033e-05  -1.5604804326727433e-05  2.0429324012335681e-06  4.7192308576034684e-05  6.5739228341721903e-06  -1.6473840581987801e-06  -1.0970647110286169e-04  -5.3569627549515122e-05  2.1380066412613243e-16  3.7733147458290247e-05  5.3583550189394022e-05  0.0000000000000000e+00  1.0755547762515857e-17  1.4072106821189518e-07  0.0000000000000000e+00  -3.0014360457702895e-07  -8.4576109084824951e-07  1.0373461517667834e-06  6.5349408866962932e-07  -1.9319084065408063e-06  -5.5554034437763177e-06  7.3430423799949504e-17  4.5686672218187789e-06  1.2953420247435049e-06  -1.7479026591969454e-06  0.0000000000000000e+00  7.5880566163045249e-06  8.8783242124976949e-06  0.0000000000000000e+00  -2.3854346258679812e-05  -4.5495123347572605e-06  2.0118787356116153e-05  0.0000000000000000e+00  -7.8633246809410522e-06  -7.0080395374454740e-05  -1.4510358767524014e-05  0.0000000000000000e+00  4.4224177970642911e-05  5.8430172076105041e-06  0.0000000000000000e+00  -1.0234568246083989e-04  -5.0249647913603627e-05  1.9880571881901241e-16  3.4251170543143363e-05  -1.0850717391914144e-07  2.4563307476687990e-17  9.7630366273067591e-18  1.3165280074225617e-07  -9.8511952524171895e-07  -2.4768119178279178e-07  -7.7895740432840700e-07  9.7263323993977775e-07  6.1239298843636113e-07  -1.8074134579167932e-06  -5.1974052778296298e-06  6.8812063418270715e-17  4.2836594078032337e-06  1.1930275254205875e-06  -1.4423849355720821e-06  -1.0701602253912347e-05  7.0990713645169275e-06  8.0590413793526813e-06  -1.0280702147743276e-05  -2.2366237199327118e-05  -2.3094132214685785e-06  1.8863714196568417e-05  1.0280702147791949e-05  -7.2422283894783172e-06  -6.5404492930857305e-05  -1.3364236690160624e-05  7.4956239172223102e-05  4.1483382915800510e-05  5.0392591716732646e-06  -1.1190930339678024e-04  -9.5590595595775320e-05  -4.7114917014729881e-05  1.8310275605323041e-16  0.0000000000000000e+00  -1.0146989786587016e-07  2.2965483843546223e-17  8.6775571376277629e-18  1.2337258053351070e-07  -9.2103828290924901e-07  -1.9076293131363104e-07  -7.0707599812574643e-07  9.0955272313317038e-07  5.7443991047433018e-07  -1.6937373237561496e-06  -4.8705177374819046e-06  6.4547433259277268e-17  4.0058409679518006e-06  1.0829361446991360e-06  -1.1109183398699638e-06  -1.0005471530881152e-05  6.6525797301241280e-06  7.1630164582442081e-06  -9.6119506421675126e-06  -2.0915665962793933e-05  0.0000000000000000e+00  1.7640300486704513e-05  9.6119506422130169e-06  -6.5739228341503453e-06  -6.0996739813851433e-05  -1.2130998363166134e-05  7.0080395374946588e-05  3.8895519167191706e-05  4.1584418202123575e-06  -1.0462969213492105e-04  -8.9430600511462052e-05  -4.4059260275326647e-05  1.1722147541087063e-18  -1.9846200112009725e-07  -9.4353289622220636e-08  2.1433181386508738e-17  7.4838833841792172e-18  1.1572656032135758e-07  -8.5958478889440218e-07  -1.2989955169708758e-07  -6.2846147245008779e-07  8.4576109089914803e-07  5.3860454422447727e-07  -1.5887678908763692e-06  -4.5686672217238942e-06  6.0520761593264065e-17  3.7248906422408338e-06  9.6253252248848826e-07  -7.5647712753966016e-07  -9.3378867016202525e-06  6.2402858568864443e-06  6.1776809996449101e-06  -8.9706223041166124e-06  -1.9448742235236849e-05  2.459