<?xml version="1.0"?>
<VTKFile type="UnstructuredGrid"  version="0.1"  >
<UnstructuredGrid>
<Piece  NumberOfPoints="1089" NumberOfCells="2048">
<Points>
<DataArray  type="Float64"  NumberOfComponents="3"  format="ascii">0 0 0  0.03125 0 0  0.0625 0 0  0.09375 0 0  0.125 0 0  0.15625 0 0  0.1875 0 0  0.21875 0 0  0.25 0 0  0.28125 0 0  0.3125 0 0  0.34375 0 0  0.375 0 0  0.40625 0 0  0.4375 0 0  0.46875 0 0  0.5 0 0  0.53125 0 0  0.5625 0 0  0.59375 0 0  0.625 0 0  0.65625 0 0  0.6875 0 0  0.71875 0 0  0.75 0 0  0.78125 0 0  0.8125 0 0  0.84375 0 0  0.875 0 0  0.90625 0 0  0.9375 0 0  0.96875 0 0  1 0 0  0 0.03125 0  0.03125 0.03125 0  0.0625 0.03125 0  0.09375 0.03125 0  0.125 0.03125 0  0.15625 0.03125 0  0.1875 0.03125 0  0.21875 0.03125 0  0.25 0.03125 0  0.28125 0.03125 0  0.3125 0.03125 0  0.34375 0.03125 0  0.375 0.03125 0  0.40625 0.03125 0  0.4375 0.03125 0  0.46875 0.03125 0  0.5 0.03125 0  0.53125 0.03125 0  0.5625 0.03125 0  0.59375 0.03125 0  0.625 0.03125 0  0.65625 0.03125 0  0.6875 0.03125 0  0.71875 0.03125 0  0.75 0.03125 0  0.78125 0.03125 0  0.8125 0.03125 0  0.84375 0.03125 0  0.875 0.03125 0  0.90625 0.03125 0  0.9375 0.03125 0  0.96875 0.03125 0  1 0.03125 0  0 0.0625 0  0.03125 0.0625 0  0.0625 0.0625 0  0.09375 0.0625 0  0.125 0.0625 0  0.15625 0.0625 0  0.1875 0.0625 0  0.21875 0.0625 0  0.25 0.0625 0  0.28125 0.0625 0  0.3125 0.0625 0  0.34375 0.0625 0  0.375 0.0625 0  0.40625 0.0625 0  0.4375 0.0625 0  0.46875 0.0625 0  0.5 0.0625 0  0.53125 0.0625 0  0.5625 0.0625 0  0.59375 0.0625 0  0.625 0.0625 0  0.65625 0.0625 0  0.6875 0.0625 0  0.71875 0.0625 0  0.75 0.0625 0  0.78125 0.0625 0  0.8125 0.0625 0  0.84375 0.0625 0  0.875 0.0625 0  0.90625 0.0625 0  0.9375 0.0625 0  0.96875 0.0625 0  1 0.0625 0  0 0.09375 0  0.03125 0.09375 0  0.0625 0.09375 0  0.09375 0.09375 0  0.125 0.09375 0  0.15625 0.09375 0  0.1875 0.09375 0  0.21875 0.09375 0  0.25 0.09375 0  0.28125 0.09375 0  0.3125 0.09375 0  0.34375 0.09375 0  0.375 0.09375 0  0.40625 0.09375 0  0.4375 0.09375 0  0.46875 0.09375 0  0.5 0.09375 0  0.53125 0.09375 0  0.5625 0.09375 0  0.59375 0.09375 0  0.625 0.09375 0  0.65625 0.09375 0  0.6875 0.09375 0  0.71875 0.09375 0  0.75 0.09375 0  0.78125 0.09375 0  0.8125 0.09375 0  0.84375 0.09375 0  0.875 0.09375 0  0.90625 0.09375 0  0.9375 0.09375 0  0.96875 0.09375 0  1 0.09375 0  0 0.125 0  0.03125 0.125 0  0.0625 0.125 0  0.09375 0.125 0  0.125 0.125 0  0.15625 0.125 0  0.1875 0.125 0  0.21875 0.125 0  0.25 0.125 0  0.28125 0.125 0  0.3125 0.125 0  0.34375 0.125 0  0.375 0.125 0  0.40625 0.125 0  0.4375 0.125 0  0.46875 0.125 0  0.5 0.125 0  0.53125 0.125 0  0.5625 0.125 0  0.59375 0.125 0  0.625 0.125 0  0.65625 0.125 0  0.6875 0.125 0  0.71875 0.125 0  0.75 0.125 0  0.78125 0.125 0  0.8125 0.125 0  0.84375 0.125 0  0.875 0.125 0  0.90625 0.125 0  0.9375 0.125 0  0.96875 0.125 0  1 0.125 0  0 0.15625 0  0.03125 0.15625 0  0.0625 0.15625 0  0.09375 0.15625 0  0.125 0.15625 0  0.15625 0.15625 0  0.1875 0.15625 0  0.21875 0.15625 0  0.25 0.15625 0  0.28125 0.15625 0  0.3125 0.15625 0  0.34375 0.15625 0  0.375 0.15625 0  0.40625 0.15625 0  0.4375 0.15625 0  0.46875 0.15625 0  0.5 0.15625 0  0.53125 0.15625 0  0.5625 0.15625 0  0.59375 0.15625 0  0.625 0.15625 0  0.65625 0.15625 0  0.6875 0.15625 0  0.71875 0.15625 0  0.75 0.15625 0  0.78125 0.15625 0  0.8125 0.15625 0  0.84375 0.15625 0  0.875 0.15625 0  0.90625 0.15625 0  0.9375 0.15625 0  0.96875 0.15625 0  1 0.15625 0  0 0.1875 0  0.03125 0.1875 0  0.0625 0.1875 0  0.09375 0.1875 0  0.125 0.1875 0  0.15625 0.1875 0  0.1875 0.1875 0  0.21875 0.1875 0  0.25 0.1875 0  0.28125 0.1875 0  0.3125 0.1875 0  0.34375 0.1875 0  0.375 0.1875 0  0.40625 0.1875 0  0.4375 0.1875 0  0.46875 0.1875 0  0.5 0.1875 0  0.53125 0.1875 0  0.5625 0.1875 0  0.59375 0.1875 0  0.625 0.1875 0  0.65625 0.1875 0  0.6875 0.1875 0  0.71875 0.1875 0  0.75 0.1875 0  0.78125 0.1875 0  0.8125 0.1875 0  0.84375 0.1875 0  0.875 0.1875 0  0.90625 0.1875 0  0.9375 0.1875 0  0.96875 0.1875 0  1 0.1875 0  0 0.21875 0  0.03125 0.21875 0  0.0625 0.21875 0  0.09375 0.21875 0  0.125 0.21875 0  0.15625 0.21875 0  0.1875 0.21875 0  0.21875 0.21875 0  0.25 0.21875 0  0.28125 0.21875 0  0.3125 0.21875 0  0.34375 0.21875 0  0.375 0.21875 0  0.40625 0.21875 0  0.4375 0.21875 0  0.46875 0.21875 0  0.5 0.21875 0  0.53125 0.21875 0  0.5625 0.21875 0  0.59375 0.21875 0  0.625 0.21875 0  0.65625 0.21875 0  0.6875 0.21875 0  0.71875 0.21875 0  0.75 0.21875 0  0.78125 0.21875 0  0.8125 0.21875 0  0.84375 0.21875 0  0.875 0.21875 0  0.90625 0.21875 0  0.9375 0.21875 0  0.96875 0.21875 0  1 0.21875 0  0 0.25 0  0.03125 0.25 0  0.0625 0.25 0  0.09375 0.25 0  0.125 0.25 0  0.15625 0.25 0  0.1875 0.25 0  0.21875 0.25 0  0.25 0.25 0  0.28125 0.25 0  0.3125 0.25 0  0.34375 0.25 0  0.375 0.25 0  0.40625 0.25 0  0.4375 0.25 0  0.46875 0.25 0  0.5 0.25 0  0.53125 0.25 0  0.5625 0.25 0  0.59375 0.25 0  0.625 0.25 0  0.65625 0.25 0  0.6875 0.25 0  0.71875 0.25 0  0.75 0.25 0  0.78125 0.25 0  0.8125 0.25 0  0.84375 0.25 0  0.875 0.25 0  0.90625 0.25 0  0.9375 0.25 0  0.96875 0.25 0  1 0.25 0  0 0.28125 0  0.03125 0.28125 0  0.0625 0.28125 0  0.09375 0.28125 0  0.125 0.28125 0  0.15625 0.28125 0  0.1875 0.28125 0  0.21875 0.28125 0  0.25 0.28125 0  0.28125 0.28125 0  0.3125 0.28125 0  0.34375 0.28125 0  0.375 0.28125 0  0.40625 0.28125 0  0.4375 0.28125 0  0.46875 0.28125 0  0.5 0.28125 0  0.53125 0.28125 0  0.5625 0.28125 0  0.59375 0.28125 0  0.625 0.28125 0  0.65625 0.28125 0  0.6875 0.28125 0  0.71875 0.28125 0  0.75 0.28125 0  0.78125 0.28125 0  0.8125 0.28125 0  0.84375 0.28125 0  0.875 0.28125 0  0.90625 0.28125 0  0.9375 0.28125 0  0.96875 0.28125 0  1 0.28125 0  0 0.3125 0  0.03125 0.3125 0  0.0625 0.3125 0  0.09375 0.3125 0  0.125 0.3125 0  0.15625 0.3125 0  0.1875 0.3125 0  0.21875 0.3125 0  0.25 0.3125 0  0.28125 0.3125 0  0.3125 0.3125 0  0.34375 0.3125 0  0.375 0.3125 0  0.40625 0.3125 0  0.4375 0.3125 0  0.46875 0.3125 0  0.5 0.3125 0  0.53125 0.3125 0  0.5625 0.3125 0  0.59375 0.3125 0  0.625 0.3125 0  0.65625 0.3125 0  0.6875 0.3125 0  0.71875 0.3125 0  0.75 0.3125 0  0.78125 0.3125 0  0.8125 0.3125 0  0.84375 0.3125 0  0.875 0.3125 0  0.90625 0.3125 0  0.9375 0.3125 0  0.96875 0.3125 0  1 0.3125 0  0 0.34375 0  0.03125 0.34375 0  0.0625 0.34375 0  0.09375 0.34375 0  0.125 0.34375 0  0.15625 0.34375 0  0.1875 0.34375 0  0.21875 0.34375 0  0.25 0.34375 0  0.28125 0.34375 0  0.3125 0.34375 0  0.34375 0.34375 0  0.375 0.34375 0  0.40625 0.34375 0  0.4375 0.34375 0  0.46875 0.34375 0  0.5 0.34375 0  0.53125 0.34375 0  0.5625 0.34375 0  0.59375 0.34375 0  0.625 0.34375 0  0.65625 0.34375 0  0.6875 0.34375 0  0.71875 0.34375 0  0.75 0.34375 0  0.78125 0.34375 0  0.8125 0.34375 0  0.84375 0.34375 0  0.875 0.34375 0  0.90625 0.34375 0  0.9375 0.34375 0  0.96875 0.34375 0  1 0.34375 0  0 0.375 0  0.03125 0.375 0  0.0625 0.375 0  0.09375 0.375 0  0.125 0.375 0  0.15625 0.375 0  0.1875 0.375 0  0.21875 0.375 0  0.25 0.375 0  0.28125 0.375 0  0.3125 0.375 0  0.34375 0.375 0  0.375 0.375 0  0.40625 0.375 0  0.4375 0.375 0  0.46875 0.375 0  0.5 0.375 0  0.53125 0.375 0  0.5625 0.375 0  0.59375 0.375 0  0.625 0.375 0  0.65625 0.375 0  0.6875 0.375 0  0.71875 0.375 0  0.75 0.375 0  0.78125 0.375 0  0.8125 0.375 0  0.84375 0.375 0  0.875 0.375 0  0.90625 0.375 0  0.9375 0.375 0  0.96875 0.375 0  1 0.375 0  0 0.40625 0  0.03125 0.40625 0  0.0625 0.40625 0  0.09375 0.40625 0  0.125 0.40625 0  0.15625 0.40625 0  0.1875 0.40625 0  0.21875 0.40625 0  0.25 0.40625 0  0.28125 0.40625 0  0.3125 0.40625 0  0.34375 0.40625 0  0.375 0.40625 0  0.40625 0.40625 0  0.4375 0.40625 0  0.46875 0.40625 0  0.5 0.40625 0  0.53125 0.40625 0  0.5625 0.40625 0  0.59375 0.40625 0  0.625 0.40625 0  0.65625 0.40625 0  0.6875 0.40625 0  0.71875 0.40625 0  0.75 0.40625 0  0.78125 0.40625 0  0.8125 0.40625 0  0.84375 0.40625 0  0.875 0.40625 0  0.90625 0.40625 0  0.9375 0.40625 0  0.96875 0.40625 0  1 0.40625 0  0 0.4375 0  0.03125 0.4375 0  0.0625 0.4375 0  0.09375 0.4375 0  0.125 0.4375 0  0.15625 0.4375 0  0.1875 0.4375 0  0.21875 0.4375 0  0.25 0.4375 0  0.28125 0.4375 0  0.3125 0.4375 0  0.34375 0.4375 0  0.375 0.4375 0  0.40625 0.4375 0  0.4375 0.4375 0  0.46875 0.4375 0  0.5 0.4375 0  0.53125 0.4375 0  0.5625 0.4375 0  0.59375 0.4375 0  0.625 0.4375 0  0.65625 0.4375 0  0.6875 0.4375 0  0.71875 0.4375 0  0.75 0.4375 0  0.78125 0.4375 0  0.8125 0.4375 0  0.84375 0.4375 0  0.875 0.4375 0  0.90625 0.4375 0  0.9375 0.4375 0  0.96875 0.4375 0  1 0.4375 0  0 0.46875 0  0.03125 0.46875 0  0.0625 0.46875 0  0.09375 0.46875 0  0.125 0.46875 0  0.15625 0.46875 0  0.1875 0.46875 0  0.21875 0.46875 0  0.25 0.46875 0  0.28125 0.46875 0  0.3125 0.46875 0  0.34375 0.46875 0  0.375 0.46875 0  0.40625 0.46875 0  0.4375 0.46875 0  0.46875 0.46875 0  0.5 0.46875 0  0.53125 0.46875 0  0.5625 0.46875 0  0.59375 0.46875 0  0.625 0.46875 0  0.65625 0.46875 0  0.6875 0.46875 0  0.71875 0.46875 0  0.75 0.46875 0  0.78125 0.46875 0  0.8125 0.46875 0  0.84375 0.46875 0  0.875 0.46875 0  0.90625 0.46875 0  0.9375 0.46875 0  0.96875 0.46875 0  1 0.46875 0  0 0.5 0  0.03125 0.5 0  0.0625 0.5 0  0.09375 0.5 0  0.125 0.5 0  0.15625 0.5 0  0.1875 0.5 0  0.21875 0.5 0  0.25 0.5 0  0.28125 0.5 0  0.3125 0.5 0  0.34375 0.5 0  0.375 0.5 0  0.40625 0.5 0  0.4375 0.5 0  0.46875 0.5 0  0.5 0.5 0  0.53125 0.5 0  0.5625 0.5 0  0.59375 0.5 0  0.625 0.5 0  0.65625 0.5 0  0.6875 0.5 0  0.71875 0.5 0  0.75 0.5 0  0.78125 0.5 0  0.8125 0.5 0  0.84375 0.5 0  0.875 0.5 0  0.90625 0.5 0  0.9375 0.5 0  0.96875 0.5 0  1 0.5 0  0 0.53125 0  0.03125 0.53125 0  0.0625 0.53125 0  0.09375 0.53125 0  0.125 0.53125 0  0.15625 0.53125 0  0.1875 0.53125 0  0.21875 0.53125 0  0.25 0.53125 0  0.28125 0.53125 0  0.3125 0.53125 0  0.34375 0.53125 0  0.375 0.53125 0  0.40625 0.53125 0  0.4375 0.53125 0  0.46875 0.53125 0  0.5 0.53125 0  0.53125 0.53125 0  0.5625 0.53125 0  0.59375 0.53125 0  0.625 0.53125 0  0.65625 0.53125 0  0.6875 0.53125 0  0.71875 0.53125 0  0.75 0.53125 0  0.78125 0.531
[...]
<PointData  Scalars="phi"> 
<DataArray  type="Float64"  Name="phi"  format="ascii">0.0000000000000000e+00  0.0000000000000000e+00  0.0000000000000000e+00  0.0000000000000000e+00  0.0000000000000000e+00  0.0000000000000000e+00  0.0000000000000000e+00  0.0000000000000000e+00  0.0000000000000000e+00  0.0000000000000000e+00  0.0000000000000000e+00  0.0000000000000000e+00  0.0000000000000000e+00  0.0000000000000000e+00  0.0000000000000000e+00  0.0000000000000000e+00  0.0000000000000000e+00  0.0000000000000000e+00  0.0000000000000000e+00  0.0000000000000000e+00  0.0000000000000000e+00  0.0000000000000000e+00  0.0000000000000000e+00  0.0000000000000000e+00  0.0000000000000000e+00  0.0000000000000000e+00  0.0000000000000000e+00  0.0000000000000000e+00  0.0000000000000000e+00  0.0000000000000000e+00  0.0000000000000000e+00  0.0000000000000000e+00  0.0000000000000000e+00  0.0000000000000000e+00  -7.2290311408165765e-10  -1.4255933660273720e-09  -2.0924957664353565e-09  -2.7085867694160170e-09  -3.2602432590461577e-09  -3.7358064612785364e-09  -4.1259959424826235e-09  -4.4242073472873203e-09  -4.6267001865584303e-09  -4.7326758037209092e-09  -4.7442460746158387e-09  -4.6662960427335817e-09  -4.5062470474335126e-09  -4.2737303430198976e-09  -3.9801844091029522e-09  -3.6383919157315708e-09  -3.2619744893070092e-09  -2.8648649272073376e-09  -2.4607772649607606e-09  -2.0626950771062475e-09  -1.6823975910750359e-09  -1.3300416432311825e-09  -1.0138152679921846e-09  -7.3967587237294572e-10  -5.1118262123903505e-10  -3.2942897567218543e-10  -1.9307743853203717e-10  -9.8494634965005382e-11  -3.9981082634612260e-11  -1.0086632902369209e-11  1.1834230558794439e-21  0.0000000000000000e+00  0.0000000000000000e+00  -1.4255933660273685e-09  -2.8129587365899524e-09  -4.1300420953618525e-09  -5.3466615331700711e-09  -6.4356486749804601e-09  -7.3738155199708170e-09  -8.1427298021529315e-09  -8.7292906907621461e-09  -9.1260960643894521e-09  -9.3315950051570513e-09  -9.3500243590958795e-09  -9.1911348773197873e-09  -8.8697196253308703e-09  -8.4049643860165283e-09  -7.8196462376001892e-09  -7.1392120261509230e-09  -6.3907728174214208e-09  -5.6020534154770290e-09  -4.8003375497118475e-09  -4.0114492942589857e-09  -3.2588096941564952e-09  -2.5626044921958983e-09  -1.9390943991254028e-09  -1.4000937017783374e-09  -9.5263638040003564e-10  -5.9884156977409257e-10  -3.3598244284306105e-10  -1.5675474018606841e-10  -4.9733556743967293e-11  4.7001852522168178e-21  1.0086632907086617e-11  0.0000000000000000e+00  0.0000000000000000e+00  -2.0924957664353424e-09  -4.1300420953618360e-09  -6.0644473697440560e-09  -7.8506702015589966e-09  -9.4483227656414022e-09  -1.0823010660272825e-08  -1.1947440963938425e-08  -1.2802257663161403e-08  -1.3376577890275775e-08  -1.3668213595737402e-08  -1.3683574341174174e-08  -1.3437258238272083e-08  -1.2951349344447174e-08  -1.2254450574416978e-08  -1.1380490923284773e-08  -1.0367354104055579e-08  -9.2553822346723791e-09  -8.0858127004179581e-09  -6.8992085862261852e-09  -5.7339430292584936e-09  -4.6247954858570539e-09  -3.6017133302254023e-09  -2.6887855831832163e-09  -1.9034671661398643e-09  -1.2560822161303414e-09  -7.4962406847058811e-10  -3.7985794464075625e-10  -1.3572063389068985e-10  1.0437374459925445e-20  4.9733556757976075e-11  3.9981082641643153e-11  0.0000000000000000e+00  0.0000000000000000e+00  -2.7085867694159840e-09  -5.3466615331700181e-09  -7.8506702015589536e-09  -1.0161364263929419e-08  -1.2225725408459975e-08  -1.3998682448922881e-08  -1.5444540047361843e-08  -1.6538060877661511e-08  -1.7265161149120985e-08  -1.7623195901854787e-08  -1.7620826489133535e-08  -1.7277478462298244e-08  -1.6622413418277731e-08  -1.5693452788038584e-08  -1.4535404514443482e-08  -1.3198254594941164e-08  -1.1735194120757538e-08  -1.0200558393244899e-08  -8.6477577088970451e-09  -7.1272793610619869e-09  -5.6848373112658107e-09  -4.3597399574539541e-09  -3.1835377051140458e-09  -2.1790009693952698e-09  -1.3594662326281737e-09  -7.2857335759079591e-10  -2.8040207324040302e-10  1.8206121528440119e-20  1.3572063391826035e-10  1.5675474020457169e-10  9.8494634974292707e-11  0.0000000000000000e+00  0.0000000000000000e+00  -3.2602432590460924e-09  -6.4356486749803501e-09  -9.4483227656412764e-09  -1.2225725408459885e-08  -1.4703028052485437e-08  -1.6825206049904593e-08  -1.8548778186164463e-08  -1.9843124230861031e-08  -2.0691330589683065e-08  -2.1090533843950197e-08  -2.1051751853796584e-08  -2.0599211858910671e-08  -1.9769204148147534e-08  -1.8608507789232845e-08  -1.7172450988268903e-08  -1.5522682296645821e-08  -1.3724739588307572e-08  -1.1845511087621342e-08  -9.9506864581562533e-09  -8.1022959251467641e-09  -6.3564316038934649e-09  -4.7612377924319816e-09  -3.3552462483439828e-09  -2.1661188235564247e-09  -1.2098438062440101e-09  -4.9041453560201027e-10  2.7747446138324841e-20  2.8040207328535574e-10  3.7985794467479468e-10  3.3598244286590612e-10  1.9307743854350440e-10  0.0000000000000000e+00  0.0000000000000000e+00  -3.7358064612784272e-09  -7.3738155199706202e-09  -1.0823010660272584e-08  -1.3998682448922648e-08  -1.6825206049904431e-08  -1.9238495705621080e-08  -2.1188041112884889e-08  -2.2638447519732151e-08  -2.3570421724222200e-08  -2.3981168381033240e-08  -2.3884184151632857e-08  -2.3308460486973443e-08  -2.2297128439827882e-08  -2.0905600089613512e-08  -1.9199280168341070e-08  -1.7250937604554179e-08  -1.5137839351713700e-08  -1.2938757563481564e-08  -1.0730965593977947e-08  -8.5873382722768264e-09  -6.5736674331985197e-09  -4.7462949572058430e-09  -3.1501529209703740e-09  -1.8172843776060407e-09  -7.6589939385186473e-10  3.8739328630011063e-20  4.9041453566758294e-10  7.2857335764391372e-10  7.4962406851081007e-10  5.9884156980108885e-10  3.2942897568573687e-10  0.0000000000000000e+00  0.0000000000000000e+00  -4.1259959424824548e-09  -8.1427298021526172e-09  -1.1947440963938015e-08  -1.5444540047361403e-08  -1.8548778186164066e-08  -2.1188041112884637e-08  -2.3305663121197563e-08  -2.4862174036268188e-08  -2.5836414373519745e-08  -2.6225978496428248e-08  -2.6046971619753767e-08  -2.5333092901412842e-08  -2.4134082635489684e-08  -2.2513595750616410e-08  -2.0546585537180657e-08  -1.8316299964239748e-08  -1.5911007411579974e-08  -1.3420578590323958e-08  -1.0933056483419505e-08  -8.5313461178604456e-09  -6.2901508903294254e-09  -4.2732722081596962e-09  -2.5313747659008515e-09  -1.1003014139979396e-09  5.0805987778928389e-20  7.6589939394059423e-10  1.2098438063191069e-09  1.3594662326890079e-09  1.2560822161764077e-09  9.5263638043095503e-10  5.1118262125455637e-10  0.0000000000000000e+00  0.0000000000000000e+00  -4.4242073472870754e-09  -8.7292906907616895e-09  -1.2802257663160779e-08  -1.6538060877660797e-08  -1.9843124230860320e-08  -2.2638447519731549e-08  -2.4862174036267824e-08  -2.6471525748482581e-08  -2.7444034769678572e-08  -2.7778026839069250e-08  -2.7492341267656107e-08  -2.6625301061131002e-08  -2.5232975572644284e-08  -2.3386804968640812e-08  -2.1170679990565954e-08  -1.8677591049227406e-08  -1.6005976819959710e-08  -1.3255913605969622e-08  -1.0525292386282611e-08  -7.9061304536307000e-09  -5.4811588831524888e-09  -3.3208159783459026e-09  -1.4807607479825942e-09  6.3527748339677482e-20  1.1003014141115648e-09  1.8172843777052627e-09  2.1661188236404033e-09  2.1790009694633004e-09  1.9034671661913820e-09  1.4000937018129169e-09  7.3967587239030483e-10  0.0000000000000000e+00  0.0000000000000000e+00  -4.6267001865580952e-09  -9.1260960643888135e-09  -1.3376577890274898e-08  -1.7265161149119943e-08  -2.0691330589681973e-08  -2.3570421724221168e-08  -2.5836414373518918e-08  -2.7444034769678092e-08  -2.8370088925264861e-08  -2.8613979305451020e-08  -2.8197388064285227e-08  -2.7163141960639311e-08  -2.5573305298549459e-08  -2.3506576631437897e-08  -2.1055091402520702e-08  -1.8320755155396622e-08  -1.5411249583998447e-08  -1.2435865829707985e-08  -9.5013256160818748e-09  -6.7077508072098613e-09  -4.1449357904339005e-09  -1.8890649613536458e-09  7.6455646698465412e-20  1.4807607481219809e-09  2.5313747660255077e-09  3.1501529210792313e-09  3.3552462484361183e-09  3.1835377051886856e-09  2.6887855832397401e-09  1.9390943991633435e-09  1.0138152680112313e-09  0.0000000000000000e+00  0.0000000000000000e+00  -4.7326758037204724e-09  -9.3315950051562125e-09  -1.3668213595736227e-08  -1.7623195901853371e-08  -2.1090533843948649e-08  -2.3981168381031695e-08  -2.6225978496426858e-08  -2.7778026839068168e-08  -2.8613979305450405e-08  -2.8734647305526980e-08  -2.8164634937044297e-08  -2.6951107465991168e-08  -2.5161731035211485e-08  -2.2881865096949710e-08  -2.0211117470605959e-08  -1.7259396073750077e-08  -1.4142610338278894e-08  -1.0978188380629804e-08  -7.8805826487358626e-09  -4.9569367686328701e-09  -2.3030796656727410e-09  8.9123057753240637e-20  1.8890649615187419e-09  3.3208159784963986e-09  4.2732722082942893e-09  4.7462949573233812e-09  4.7612377925314674e-09  4.3597399575345496e-09  3.6017133302864375e-09  2.5626044922368678e-09  1.3300416432517505e-09  0.0000000000000000e+00  0.0000000000000000e+00  -4.7442460746152895e-09  -9.3500243590948174e-09  -1.3683574341172670e-08  -1.7620826489131696e-08  -2.1051751853794529e-08  -2.3884184151630726e-08  -2.6046971619751729e-08  -2.7492341267654323e-08  -2.8197388064283880e-08  -2.8164634937043555e-08  -2.7421644916737384e-08  -2.6019702950860980e-08  -2.4031620416563363e-08  -2.1548748816887348e-08  -1.8677319247721067e-08  -1.5534249819532132e-08  -1.2242583324717090e-08  -8.9267312882497040e-09  -5.7077075977607369e-09  -2.6985349121682194e-09  1.0106441072108093e-19  2.3030796658625553e-09  4.1449357906097161e-09  5.4811588833127584e-09  6.2901508904727642e-09  6.5736674333236953e-09  6.3564316039994160e-09  5.6848373113516464e-09  4.6247954859220603e-09  3.2588096942001311e-09  1.6823975910969425e-09  0.0000000000000000e+00  0.0000000000000000e+00  -4.6662960427329093e-09  -9.1911348773184820e-09  -1.3437258238270220e-08  -1.7277478462295938e-08  -2.0599211858908047e-08  -2.3308460486970663e-08  -2.5333092901410076e-08  -2.6625301061128441e-08  -2.7163141960637144e-08  -2.6951107465989573e-08  -2.6019702950860110e-08  -2.4424053201644641e-08  -2.2241591223020857e-08  -1.9568920589585570e-08  -1.6517973503183629e-08  -1.3211613515194653e-08  -9.7788529277456417e-09  -6.3498693894485440e-09  -3.0510135947184163e-09  1.1182950837278127e-19  2.6985349123808433e-09  4.9569367688325466e-09  6.7077508073948147e-09  7.9061304537993059e-09  8.5313461180112407e-09  8.5873382724085169e-09  8.1022959252582317e-09  7.1272793611522926e-09  5.7339430293268857e-09  4.0114492943048958e-09  2.0626950771292965e-09  0.0000000000000000e+00  0.0000000000000000e+00  -4.5062470474327119e-09  -8.8697196253293152e-09  -1.2951349344444939e-08  -1.6622413418274932e-08  -1.9769204148144311e-08  -2.2297128439824408e-08  -2.4134082635486154e-08  -2.5232975572640879e-08  -2.5573305298546385e-08  -2.5161731035208944e-08  -2.4031620416561524e-08  -2.2241591223019871e-08  -1.9873105305123022e-08  -1.7027208632002660e-08  -1.3820544023749262e-08  -1.0380790872199965e-08  -6.8417079543502815e-09  -3.3379704585557536e-09  1.2100338568743950e-19  3.0510135949510716e-09  5.7077075979819167e-09  7.8805826489435759e-09  9.5013256162742737e-09  1.0525292386458013e-08  1.0933056483576383e-08  1.0730965594114953e-08  9.9506864582722207e-09  8.6477577089909979e-09  6.8992085862973418e-09  4.8003375497596156e-09  2.4607772649847422e-09  0.0000000000000000e+00  0.0000000000000000e+00  -4.2737303430189670e-09  -8.4049643860147119e-09  -1.2254450574414357e-08  -1.5693452788035281e-08  -1.8608507789229013e-08  -2.0905600089609330e-08  -2.2513595750612082e-08  -2.3386804968636531e-08  -2.3506576631433883e-08  -2.2881865096946169e-08  -2.1548748816884473e-08  -1.9568920589583526e-08  -1.7027208632001584e-08  -1.4028224789664819e-08  -1.0692269624465631e-08  -7.1506525456791384e-09  -3.5406074847431580e-09  1.2821680108421586e-19  3.3379704588048748e-09  6.3498693896880426e-09  8.9267312884773971e-09  1.0978188380843640e-08  1.2435865829906063e-08  1.3255913606150201e-08  1.3420578590485470e-08  1.2938757563622618e-08  1.1845511087740744e-08  1.0200558393341636e-08  8.0858127004912248e-09  5.6020534155262123e-09  2.8648649272320301e-09  0.0000000000000000e+00  0.0000000000000000e+00  -3.9801844091018942e-09  -7.8196462375981212e-09  -1.1380490923281779e-08  -1.4535404514439681e-08  -1.7172450988264469e-08  -1.9199280168336180e-08  -2.0546585537175519e-08  -2.1170679990560789e-08  -2.1055091402515729e-08  -2.0211117470601396e-08  -1.8677319247717130e-08  -1.6517973503180482e-08  -1.3820544023747060e-08  -1.0692269624464493e-08  -7.2560005385841035e-09  -3.6454436889721994e-09  1.3316828416928484e-19  3.5406074850044996e-09  6.8417079546041796e-09  9.7788529279897394e-09  1.2242583324949161e-08  1.4142610338496848e-08  1.5411249584200346e-08  1.6005976820143774e-08  1.5911007411744607e-08  1.5137839351857484e-08  1.3724739588429284e-08  1.1735194120856151e-08  9.2553822347470702e-09  6.3907728174715595e-09  3.2619744893321815e-09  0.0000000000000000e+00  0.0000000000000000e+00  -3.6383919157303929e-09  -7.1392120261486135e-09  -1.0367354104052227e-08  -1.3198254594936900e-08  -1.5522682296640809e-08  -1.7250937604548610e-08  -1.8316299964233838e-08  -1.8677591049221385e-08  -1.8320755155390719e-08  -1.7259396073744515e-08  -1.5534249819527136e-08  -1.3211613515190398e-08  -1.0380790872196623e-08  -7.1506525456768380e-09  -3.6454436889710269e-09  1.3563883928063127e-19  3.6454436892409996e-09  7.1506525459429056e-09  1.0380790872456226e-08  1.3211613515441027e-08  1.5534249819766376e-08  1.7259396073970077e-08  1.8320755155600429e-08  1.8677591049413214e-08  1.8316299964405945e-08  1.7250937604699332e-08  1.5522682296768691e-08  1.3198254595040718e-08  1.0367354104130981e-08  7.1392120262015407e-09  3.6383919157569851e-09  0.0000000000000000e+00  0.0000000000000000e+00  -3.2619744893057225e-09  -6.3907728174188954e-09  -9.2553822346687080e-09  -1.1735194120752849e-08  -1.3724739588302033e-08  -1.5137839351707510e-08  -1.5911007411573350e-08  -1.6005976819952887e-08  -1.5411249583991671e-08  -1.4142610338272387e-08  -1.2242583324711078e-08  -9.7788529277403246e-09  -6.8417079543458321e-09  -3.5406074847397170e-09  1.3550341579091584e-19  3.6454436892421726e-09  7.2560005388527783e-09  1.0692269624729280e-08  1.3820544024005412e-08  1.6517973503429900e-08  1.8677319247955219e-08  2.0211117470825887e-08  2.1055091402724447e-08  2.1170679990751716e-08  2.0546585537346818e-08  1.9199280168486191e-08  1.7172450988391749e-08  1.4535404514543017e-08  1.1380490923360162e-08  7.8196462376508027e-09  3.9801844091283632e-09  0.0000000000000000e+00  0.0000000000000000e+00  -2.8648649272059582e-09  -5.6020534154743183e-09  -8.0858127004140075e-09  -1.0200558393239843e-08  -1.1845511087615353e-08  -1.2938757563474831e-08  -1.3420578590316712e-08  -1.3255913605962095e-08  -1.2435865829700424e-08  -1.0978188380622442e-08  -8.9267312882427706e-09  -6.3498693894422450e-09  -3.3379704585502744e-09  1.3273170381655765e-19  3.5406074850079415e-09  7.1506525459452069e-09  1.0692269624730418e-08  1.4028224789925774e-08  1.7027208632256194e-08  1.9568920589829344e-08  2.1548748817119137e-08  2.2881865097167424e-08  2.3506576631639600e-08  2.3386804968824711e-08  2.2513595750780913e-08  2.0905600089757187e-08  1.8608507789354473e-08  1.5693452788137134e-08  1.2254450574491617e-08  8.4049643860666389e-09  4.2737303430450571e-09  0.0000000000000000e+00  0.0000000000000000e+00  -2.4607772649593089e-09  -4.8003375497089921e-09  -6.8992085862220154e-09  -8.6477577088916949e-09  -9.9506864581498940e-09  -1.0730965593970774e-08  -1.0933056483411742e-08  -1.0525292386274495e-08  -9.5013256160736526e-09  -7.8805826487277678e-09  -5.7077075977530036e-09  -3.0510135947112583e-09  1.2739988506606061e-19  3.3379704588103548e-09  6.8417079546086282e-09  1.0380790872459564e-08  1.3820544024007612e-08  1.7027208632257272e-08  1.9873105305371447e-08  2.2241591223259720e-08  2.4031620416790494e-08  2.5161731035424834e-08  2.5573305298747119e-08  2.5232975572824507e-08  2.4134082635650895e-08  2.2297128439968688e-08  1.9769204148266734e-08  1.6622413418374319e-08  1.2951349344520331e-08  8.8697196253799850e-09  4.5062470474581717e-09  0.0000000000000000e+00  0.0000000000000000e+00  -2.0626950771047466e-09  -4.0114492942560293e-09  -5.7339430292541716e-09  -7.1272793610564290e-09  -8.1022959251401401e-09  -8.5873382722693322e-09  -8.5313461178523029e-09  -7.9061304536221420e-09  -6.7077508072011296e-09  -4.9569367686242029e-09  -2.6985349121598475e-09  1.1969040412389570e-19  3.0510135949582317e-09  6.3498693896943424e-09  9.7788529279950565e-09  1.3211613515445279e-08  1.6517973503433050e-08  1.9568920589831382e-08  2.2241591223260703e-08  2.4424053201876212e-08  2.6019702951081189e-08  2.6951107466198019e-08  2.7163141960830955e-08  2.6625301061305742e-08  2.5333092901569152e-08  2.3308460487109974e-08  2.0599211859026255e-08  1.7277478462391901e-08  1.3437258238343019e-08  9.1911348773674097e-09  4.6662960427574939e-09  0.0000000000000000e+00  0.0000000000000000e+00  -1.6823975910735120e-09  -3.2588096941534921e-09  -4.6247954858526591e-09  -5.6848373112601487e-09  -6.3564316038867003e-09  -6.5736674331908443e-09  -6.2901508903210560e-09  -5.4811588831436529e-09  -4.1449357904248379e-09  -2.3030796656636846e-09  1.0988561005269739e-19  2.6985349123892173e-09  5.7077075979896550e-09  8.9267312884843355e-09  1.2242583324955176e-08  1.5534249819771376e-08  1.8677319247959163e-08  2.1548748817122013e-08  2.4031620416792333e-08  2.6019702951082059e-08  2.7421644916948434e-08  2.8164634937242549e-08  2.8197388064468911e-08  2.7492341267823598e-08  2.6046971619903596e-08  2.3884184151763723e-08  2.1051751853907380e-08  1.7620826489223308e-08  1.3683574341242170e-08  9.3500243591415316e-09  4.7442460746387616e-09  0.0000000000000000e+00  0.0000000000000000e+00  -1.3300416432296644e-09  -2.5626044921929044e-09  -3.6017133302210166e-09  -4.3597399574482970e-09  -4.7612377924252111e-09  -4.7462949571981427e-09  -4.2732722081512730e-09  -3.3208159783369782e-09  -1.8890649613444504e-09  9.8361893424437348e-20  2.3030796658716154e-09  4.9569367688412204e-09  7.8805826489516790e-09  1.0978188380851008e-08  1.4142610338503359e-08  1.7259396073975632e-08  2.0211117470830439e-08  2.2881865097170961e-08  2.5161731035427369e-08  2.6951107466199614e-08  2.8164634937243293e-08  2.8734647305714608e-08  2.8613979305624857e-08  2.7778026839227771e-08  2.6225978496570047e-08  2.3981168381157099e-08  2.1090533844055057e-08  1.7623195901939751e-08  1.3668213595801760e-08  9.3315950052002599e-09  4.7326758037426070e-09  0.0000000000000000e+00  0.0000000000000000e+00  -1.0138152679907021e-09  -1.9390943991224783e-09  -2.6887855831789282e-09  -3.1835377051085091e-09  -3.3552462483373459e-09  -3.1501529209628115e-09  -2.5313747658925582e-09  -1.4807607479737803e-09  8.5571154238334611e-20  1.8890649615279402e-09  4.1449357906187853e-09  6.7077508074035572e-09  9.5013256162825091e-09  1.2435865829913635e-08  1.5411249584207132e-08  1.8320755155606325e-08  2.1055091402729410e-08  2.3506576631643603e-08  2.5573305298750180e-08  2.7163141960833119e-08  2.8197388064470247e-08  2.8613979305625466e-08  2.8370088925427054e-08  2.7444034769826465e-08  2.5836414373652048e-08  2.3570421724337760e-08  2.0691330589780904e-08  1.7265161149200262e-08  1.3376577890335825e-08  9.1260960644297722e-09  4.6267001865786780e-09  0.0000000000000000e+00  0.0000000000000000e+00  -7.3967587237153021e-10  -1.4000937017755432e-09  -1.9034671661357644e-09  -2.1790009693899708e-09  -2.1661188235500641e-09  -1.8172843775987809e-09  -1.1003014139899626e-09  7.2026065025173580e-20  1.4807607481307964e-09  3.3208159785053272e-09  5.4811588833216009e-09  7.9061304538078739e-09  1.0525292386466138e-08  1.3255913606157733e-08  1.6005976820150597e-08  1.8677591049419233e-08  2.1170679990756867e-08  2.3386804968828979e-08  2.5232975