<?xml version="1.0"?>
<VTKFile type="UnstructuredGrid"  version="0.1"  >
<UnstructuredGrid>
<Piece  NumberOfPoints="1089" NumberOfCells="2048">
<Points>
<DataArray  type="Float64"  NumberOfComponents="3"  format="ascii">0 0 0  0.03125 0 0  0.0625 0 0  0.09375 0 0  0.125 0 0  0.15625 0 0  0.1875 0 0  0.21875 0 0  0.25 0 0  0.28125 0 0  0.3125 0 0  0.34375 0 0  0.375 0 0  0.40625 0 0  0.4375 0 0  0.46875 0 0  0.5 0 0  0.53125 0 0  0.5625 0 0  0.59375 0 0  0.625 0 0  0.65625 0 0  0.6875 0 0  0.71875 0 0  0.75 0 0  0.78125 0 0  0.8125 0 0  0.84375 0 0  0.875 0 0  0.90625 0 0  0.9375 0 0  0.96875 0 0  1 0 0  0 0.03125 0  0.03125 0.03125 0  0.0625 0.03125 0  0.09375 0.03125 0  0.125 0.03125 0  0.15625 0.03125 0  0.1875 0.03125 0  0.21875 0.03125 0  0.25 0.03125 0  0.28125 0.03125 0  0.3125 0.03125 0  0.34375 0.03125 0  0.375 0.03125 0  0.40625 0.03125 0  0.4375 0.03125 0  0.46875 0.03125 0  0.5 0.03125 0  0.53125 0.03125 0  0.5625 0.03125 0  0.59375 0.03125 0  0.625 0.03125 0  0.65625 0.03125 0  0.6875 0.03125 0  0.71875 0.03125 0  0.75 0.03125 0  0.78125 0.03125 0  0.8125 0.03125 0  0.84375 0.03125 0  0.875 0.03125 0  0.90625 0.03125 0  0.9375 0.03125 0  0.96875 0.03125 0  1 0.03125 0  0 0.0625 0  0.03125 0.0625 0  0.0625 0.0625 0  0.09375 0.0625 0  0.125 0.0625 0  0.15625 0.0625 0  0.1875 0.0625 0  0.21875 0.0625 0  0.25 0.0625 0  0.28125 0.0625 0  0.3125 0.0625 0  0.34375 0.0625 0  0.375 0.0625 0  0.40625 0.0625 0  0.4375 0.0625 0  0.46875 0.0625 0  0.5 0.0625 0  0.53125 0.0625 0  0.5625 0.0625 0  0.59375 0.0625 0  0.625 0.0625 0  0.65625 0.0625 0  0.6875 0.0625 0  0.71875 0.0625 0  0.75 0.0625 0  0.78125 0.0625 0  0.8125 0.0625 0  0.84375 0.0625 0  0.875 0.0625 0  0.90625 0.0625 0  0.9375 0.0625 0  0.96875 0.0625 0  1 0.0625 0  0 0.09375 0  0.03125 0.09375 0  0.0625 0.09375 0  0.09375 0.09375 0  0.125 0.09375 0  0.15625 0.09375 0  0.1875 0.09375 0  0.21875 0.09375 0  0.25 0.09375 0  0.28125 0.09375 0  0.3125 0.09375 0  0.34375 0.09375 0  0.375 0.09375 0  0.40625 0.09375 0  0.4375 0.09375 0  0.46875 0.09375 0  0.5 0.09375 0  0.53125 0.09375 0  0.5625 0.09375 0  0.59375 0.09375 0  0.625 0.09375 0  0.65625 0.09375 0  0.6875 0.09375 0  0.71875 0.09375 0  0.75 0.09375 0  0.78125 0.09375 0  0.8125 0.09375 0  0.84375 0.09375 0  0.875 0.09375 0  0.90625 0.09375 0  0.9375 0.09375 0  0.96875 0.09375 0  1 0.09375 0  0 0.125 0  0.03125 0.125 0  0.0625 0.125 0  0.09375 0.125 0  0.125 0.125 0  0.15625 0.125 0  0.1875 0.125 0  0.21875 0.125 0  0.25 0.125 0  0.28125 0.125 0  0.3125 0.125 0  0.34375 0.125 0  0.375 0.125 0  0.40625 0.125 0  0.4375 0.125 0  0.46875 0.125 0  0.5 0.125 0  0.53125 0.125 0  0.5625 0.125 0  0.59375 0.125 0  0.625 0.125 0  0.65625 0.125 0  0.6875 0.125 0  0.71875 0.125 0  0.75 0.125 0  0.78125 0.125 0  0.8125 0.125 0  0.84375 0.125 0  0.875 0.125 0  0.90625 0.125 0  0.9375 0.125 0  0.96875 0.125 0  1 0.125 0  0 0.15625 0  0.03125 0.15625 0  0.0625 0.15625 0  0.09375 0.15625 0  0.125 0.15625 0  0.15625 0.15625 0  0.1875 0.15625 0  0.21875 0.15625 0  0.25 0.15625 0  0.28125 0.15625 0  0.3125 0.15625 0  0.34375 0.15625 0  0.375 0.15625 0  0.40625 0.15625 0  0.4375 0.15625 0  0.46875 0.15625 0  0.5 0.15625 0  0.53125 0.15625 0  0.5625 0.15625 0  0.59375 0.15625 0  0.625 0.15625 0  0.65625 0.15625 0  0.6875 0.15625 0  0.71875 0.15625 0  0.75 0.15625 0  0.78125 0.15625 0  0.8125 0.15625 0  0.84375 0.15625 0  0.875 0.15625 0  0.90625 0.15625 0  0.9375 0.15625 0  0.96875 0.15625 0  1 0.15625 0  0 0.1875 0  0.03125 0.1875 0  0.0625 0.1875 0  0.09375 0.1875 0  0.125 0.1875 0  0.15625 0.1875 0  0.1875 0.1875 0  0.21875 0.1875 0  0.25 0.1875 0  0.28125 0.1875 0  0.3125 0.1875 0  0.34375 0.1875 0  0.375 0.1875 0  0.40625 0.1875 0  0.4375 0.1875 0  0.46875 0.1875 0  0.5 0.1875 0  0.53125 0.1875 0  0.5625 0.1875 0  0.59375 0.1875 0  0.625 0.1875 0  0.65625 0.1875 0  0.6875 0.1875 0  0.71875 0.1875 0  0.75 0.1875 0  0.78125 0.1875 0  0.8125 0.1875 0  0.84375 0.1875 0  0.875 0.1875 0  0.90625 0.1875 0  0.9375 0.1875 0  0.96875 0.1875 0  1 0.1875 0  0 0.21875 0  0.03125 0.21875 0  0.0625 0.21875 0  0.09375 0.21875 0  0.125 0.21875 0  0.15625 0.21875 0  0.1875 0.21875 0  0.21875 0.21875 0  0.25 0.21875 0  0.28125 0.21875 0  0.3125 0.21875 0  0.34375 0.21875 0  0.375 0.21875 0  0.40625 0.21875 0  0.4375 0.21875 0  0.46875 0.21875 0  0.5 0.21875 0  0.53125 0.21875 0  0.5625 0.21875 0  0.59375 0.21875 0  0.625 0.21875 0  0.65625 0.21875 0  0.6875 0.21875 0  0.71875 0.21875 0  0.75 0.21875 0  0.78125 0.21875 0  0.8125 0.21875 0  0.84375 0.21875 0  0.875 0.21875 0  0.90625 0.21875 0  0.9375 0.21875 0  0.96875 0.21875 0  1 0.21875 0  0 0.25 0  0.03125 0.25 0  0.0625 0.25 0  0.09375 0.25 0  0.125 0.25 0  0.15625 0.25 0  0.1875 0.25 0  0.21875 0.25 0  0.25 0.25 0  0.28125 0.25 0  0.3125 0.25 0  0.34375 0.25 0  0.375 0.25 0  0.40625 0.25 0  0.4375 0.25 0  0.46875 0.25 0  0.5 0.25 0  0.53125 0.25 0  0.5625 0.25 0  0.59375 0.25 0  0.625 0.25 0  0.65625 0.25 0  0.6875 0.25 0  0.71875 0.25 0  0.75 0.25 0  0.78125 0.25 0  0.8125 0.25 0  0.84375 0.25 0  0.875 0.25 0  0.90625 0.25 0  0.9375 0.25 0  0.96875 0.25 0  1 0.25 0  0 0.28125 0  0.03125 0.28125 0  0.0625 0.28125 0  0.09375 0.28125 0  0.125 0.28125 0  0.15625 0.28125 0  0.1875 0.28125 0  0.21875 0.28125 0  0.25 0.28125 0  0.28125 0.28125 0  0.3125 0.28125 0  0.34375 0.28125 0  0.375 0.28125 0  0.40625 0.28125 0  0.4375 0.28125 0  0.46875 0.28125 0  0.5 0.28125 0  0.53125 0.28125 0  0.5625 0.28125 0  0.59375 0.28125 0  0.625 0.28125 0  0.65625 0.28125 0  0.6875 0.28125 0  0.71875 0.28125 0  0.75 0.28125 0  0.78125 0.28125 0  0.8125 0.28125 0  0.84375 0.28125 0  0.875 0.28125 0  0.90625 0.28125 0  0.9375 0.28125 0  0.96875 0.28125 0  1 0.28125 0  0 0.3125 0  0.03125 0.3125 0  0.0625 0.3125 0  0.09375 0.3125 0  0.125 0.3125 0  0.15625 0.3125 0  0.1875 0.3125 0  0.21875 0.3125 0  0.25 0.3125 0  0.28125 0.3125 0  0.3125 0.3125 0  0.34375 0.3125 0  0.375 0.3125 0  0.40625 0.3125 0  0.4375 0.3125 0  0.46875 0.3125 0  0.5 0.3125 0  0.53125 0.3125 0  0.5625 0.3125 0  0.59375 0.3125 0  0.625 0.3125 0  0.65625 0.3125 0  0.6875 0.3125 0  0.71875 0.3125 0  0.75 0.3125 0  0.78125 0.3125 0  0.8125 0.3125 0  0.84375 0.3125 0  0.875 0.3125 0  0.90625 0.3125 0  0.9375 0.3125 0  0.96875 0.3125 0  1 0.3125 0  0 0.34375 0  0.03125 0.34375 0  0.0625 0.34375 0  0.09375 0.34375 0  0.125 0.34375 0  0.15625 0.34375 0  0.1875 0.34375 0  0.21875 0.34375 0  0.25 0.34375 0  0.28125 0.34375 0  0.3125 0.34375 0  0.34375 0.34375 0  0.375 0.34375 0  0.40625 0.34375 0  0.4375 0.34375 0  0.46875 0.34375 0  0.5 0.34375 0  0.53125 0.34375 0  0.5625 0.34375 0  0.59375 0.34375 0  0.625 0.34375 0  0.65625 0.34375 0  0.6875 0.34375 0  0.71875 0.34375 0  0.75 0.34375 0  0.78125 0.34375 0  0.8125 0.34375 0  0.84375 0.34375 0  0.875 0.34375 0  0.90625 0.34375 0  0.9375 0.34375 0  0.96875 0.34375 0  1 0.34375 0  0 0.375 0  0.03125 0.375 0  0.0625 0.375 0  0.09375 0.375 0  0.125 0.375 0  0.15625 0.375 0  0.1875 0.375 0  0.21875 0.375 0  0.25 0.375 0  0.28125 0.375 0  0.3125 0.375 0  0.34375 0.375 0  0.375 0.375 0  0.40625 0.375 0  0.4375 0.375 0  0.46875 0.375 0  0.5 0.375 0  0.53125 0.375 0  0.5625 0.375 0  0.59375 0.375 0  0.625 0.375 0  0.65625 0.375 0  0.6875 0.375 0  0.71875 0.375 0  0.75 0.375 0  0.78125 0.375 0  0.8125 0.375 0  0.84375 0.375 0  0.875 0.375 0  0.90625 0.375 0  0.9375 0.375 0  0.96875 0.375 0  1 0.375 0  0 0.40625 0  0.03125 0.40625 0  0.0625 0.40625 0  0.09375 0.40625 0  0.125 0.40625 0  0.15625 0.40625 0  0.1875 0.40625 0  0.21875 0.40625 0  0.25 0.40625 0  0.28125 0.40625 0  0.3125 0.40625 0  0.34375 0.40625 0  0.375 0.40625 0  0.40625 0.40625 0  0.4375 0.40625 0  0.46875 0.40625 0  0.5 0.40625 0  0.53125 0.40625 0  0.5625 0.40625 0  0.59375 0.40625 0  0.625 0.40625 0  0.65625 0.40625 0  0.6875 0.40625 0  0.71875 0.40625 0  0.75 0.40625 0  0.78125 0.40625 0  0.8125 0.40625 0  0.84375 0.40625 0  0.875 0.40625 0  0.90625 0.40625 0  0.9375 0.40625 0  0.96875 0.40625 0  1 0.40625 0  0 0.4375 0  0.03125 0.4375 0  0.0625 0.4375 0  0.09375 0.4375 0  0.125 0.4375 0  0.15625 0.4375 0  0.1875 0.4375 0  0.21875 0.4375 0  0.25 0.4375 0  0.28125 0.4375 0  0.3125 0.4375 0  0.34375 0.4375 0  0.375 0.4375 0  0.40625 0.4375 0  0.4375 0.4375 0  0.46875 0.4375 0  0.5 0.4375 0  0.53125 0.4375 0  0.5625 0.4375 0  0.59375 0.4375 0  0.625 0.4375 0  0.65625 0.4375 0  0.6875 0.4375 0  0.71875 0.4375 0  0.75 0.4375 0  0.78125 0.4375 0  0.8125 0.4375 0  0.84375 0.4375 0  0.875 0.4375 0  0.90625 0.4375 0  0.9375 0.4375 0  0.96875 0.4375 0  1 0.4375 0  0 0.46875 0  0.03125 0.46875 0  0.0625 0.46875 0  0.09375 0.46875 0  0.125 0.46875 0  0.15625 0.46875 0  0.1875 0.46875 0  0.21875 0.46875 0  0.25 0.46875 0  0.28125 0.46875 0  0.3125 0.46875 0  0.34375 0.46875 0  0.375 0.46875 0  0.40625 0.46875 0  0.4375 0.46875 0  0.46875 0.46875 0  0.5 0.46875 0  0.53125 0.46875 0  0.5625 0.46875 0  0.59375 0.46875 0  0.625 0.46875 0  0.65625 0.46875 0  0.6875 0.46875 0  0.71875 0.46875 0  0.75 0.46875 0  0.78125 0.46875 0  0.8125 0.46875 0  0.84375 0.46875 0  0.875 0.46875 0  0.90625 0.46875 0  0.9375 0.46875 0  0.96875 0.46875 0  1 0.46875 0  0 0.5 0  0.03125 0.5 0  0.0625 0.5 0  0.09375 0.5 0  0.125 0.5 0  0.15625 0.5 0  0.1875 0.5 0  0.21875 0.5 0  0.25 0.5 0  0.28125 0.5 0  0.3125 0.5 0  0.34375 0.5 0  0.375 0.5 0  0.40625 0.5 0  0.4375 0.5 0  0.46875 0.5 0  0.5 0.5 0  0.53125 0.5 0  0.5625 0.5 0  0.59375 0.5 0  0.625 0.5 0  0.65625 0.5 0  0.6875 0.5 0  0.71875 0.5 0  0.75 0.5 0  0.78125 0.5 0  0.8125 0.5 0  0.84375 0.5 0  0.875 0.5 0  0.90625 0.5 0  0.9375 0.5 0  0.96875 0.5 0  1 0.5 0  0 0.53125 0  0.03125 0.53125 0  0.0625 0.53125 0  0.09375 0.53125 0  0.125 0.53125 0  0.15625 0.53125 0  0.1875 0.53125 0  0.21875 0.53125 0  0.25 0.53125 0  0.28125 0.53125 0  0.3125 0.53125 0  0.34375 0.53125 0  0.375 0.53125 0  0.40625 0.53125 0  0.4375 0.53125 0  0.46875 0.53125 0  0.5 0.53125 0  0.53125 0.53125 0  0.5625 0.53125 0  0.59375 0.53125 0  0.625 0.53125 0  0.65625 0.53125 0  0.6875 0.53125 0  0.71875 0.53125 0  0.75 0.53125 0  0.78125 0.531
[...]
<PointData  Scalars="theta_dt"> 
<DataArray  type="Float64"  Name="theta_dt"  format="ascii">1.0284946705852015e-04  -4.3179181708985078e-16  -9.2331755875891820e-05  -2.7894694792926677e-05  2.6275740528390017e-05  1.6165593346186051e-04  2.2625542047956975e-04  -8.7150985330060237e-05  -1.7524538639524098e-04  -1.3829193084730681e-04  -2.9449723790045926e-05  4.3822185266533514e-05  2.1754271597319575e-04  3.1518984419511367e-04  2.4606575420156883e-04  2.6011688737350070e-04  -1.0074717788208181e-15  -1.3690073532813635e-04  -3.6579035291613225e-04  -3.6077661844554005e-04  -1.8561886651239688e-04  -7.3366070156640102e-05  -3.8806062994418358e-05  1.0284676858286731e-04  5.7225638974389230e-05  9.2329333353650595e-05  4.4394906584141323e-04  2.5993379416110570e-04  3.7179836254434086e-04  4.9388463326334084e-04  6.1640165846568945e-04  5.0469473260310316e-04  4.1963173147398079e-04  1.7763881468632355e-05  1.0330394313764105e-04  -4.1356799311254039e-16  -9.7957142248018063e-05  -2.6072822888235753e-05  2.6078750514308734e-05  1.7654750007714223e-04  9.0981772662307754e-05  -8.2812769159542718e-05  -1.6003296197650093e-04  -1.2666982901995933e-04  -2.7433577881080370e-05  4.0822091948954923e-05  1.9926035068009866e-04  2.8782934255224224e-04  2.3381705236710250e-04  -1.3216475353116763e-15  -1.1002789699089581e-15  -1.3587438641321652e-04  -3.4189967506745896e-04  -3.8275722363963265e-04  -1.7778480061233389e-04  -7.3690263610032858e-05  -3.9977427545957202e-05  1.0330123273783671e-04  5.4810424210276734e-05  9.7954572131663908e-05  4.1495364803259956e-04  2.5798506271748856e-04  4.0604801837023095e-04  6.4349605857067437e-04  5.8571831470127485e-04  4.6088399023671021e-04  -1.3412689816891291e-05  1.9318832629195131e-05  1.0183053119658550e-04  -4.1046746147580952e-16  -1.0201404576623832e-04  -2.4035966054333564e-05  2.6865939977596483e-05  1.9038093680656931e-04  9.1383807213323137e-05  -7.7404061209825910e-05  -1.4570892100768777e-04  -1.1799793588477567e-04  -2.6275740528482734e-05  3.9099190799328613e-05  1.8561886651179864e-04  2.6206665439209773e-04  2.1854587905950675e-04  -1.3274876938171798e-15  -1.1864916860805501e-15  -1.3997576716213270e-04  -3.1518984419662093e-04  -3.9860914716018916e-04  -1.7645194263490706e-04  -7.2639228082784017e-05  -4.2525988983773819e-05  1.0182785945489343e-04  5.4399508817604226e-05  1.0201136920829307e-04  3.8253670655407588e-04  2.6577236537009882e-04  4.3786404277601097e-04  6.4633956932472235e-04  5.4746359459988299e-04  -3.2302788194793352e-05  -1.2248382246298353e-05  2.1237413186970695e-05  9.8518990478356310e-05  -4.2285745924502545e-16  -1.0414473657215198e-04  -2.1949489916763305e-05  2.8578643941324183e-05  2.0198004826356189e-04  9.0080410763220223e-05  -7.1357113715001528e-05  -1.3346349275508744e-04  -1.1301781924490288e-04  -2.6078750514400735e-05  3.8806062994317581e-05  1.7778480061176097e-04  2.4004248187360047e-04  2.0147267340043059e-04  -1.3085538936129747e-15  -1.2587796448462226e-15  -1.4889922383047664e-04  -2.8782934255361880e-04  -4.0693459723550006e-04  -1.8177816062003022e-04  -7.0276991937000816e-05  -4.6248477002012672e-05  9.8516405622014875e-05  5.6041562953815692e-05  1.0414200411094986e-04  3.4933006496681640e-04  2.8271535653282145e-04  4.6454126120113359e-04  6.3712090437840054e-04  2.2106889739887203e-05  -6.0442335305180365e-05  -1.1152068543603637e-05  2.3361242641598486e-05  9.3614895866257305e-05  -4.4981462683881570e-16  -1.2194605750115885e-04  -1.9984860949523215e-05  3.1080259122800278e-05  2.1034506943104416e-04  8.7150985328118404e-05  -6.5162858211574625e-05  -1.2432650129014981e-04  -1.1217052126749910e-04  -2.6865939977691259e-05  3.9977427545853383e-05  1.7645194263433853e-04  2.2360902832891972e-04  1.8398355211975310e-04  -1.2659995687972557e-15  -1.3109121127055940e-15  -1.6193303185891547e-04  -2.6206665439335123e-04  -3.3359698468999661e-04  -1.9336652032278686e-04  -6.6778732202107474e-05  -5.0841478582692969e-05  9.3612439679322543e-05  5.9614213197378211e-05  4.8774208848289711e-04  3.1806264292811448e-04  3.0746268287171289e-04  4.8378027771055508e-04  3.2211707610728408e-05  2.4317670458161619e-05  -6.0709420749062941e-05  -1.0214844835718428e-05  2.5513254594164403e-05  8.7500674151146486e-05  -4.8918889182004812e-16  -1.2248491849541033e-04  -1.8305326304676942e-05  3.4166883559595522e-05  2.1473838901894663e-04  8.2812769157697473e-05  -5.9330338216071356e-05  -1.1907928680957735e-04  -1.1555639868462544e-04  -2.8578643941425034e-05  4.2525988983663400e-05  1.8177816061944456e-04  2.1417158322060815e-04  1.6751577007283921e-04  -1.2029804327493457e-15  -1.3382921500810654e-15  -1.7801482999596513e-04  -2.4004248187474829e-04  -3.3507109879038602e-04  -2.1029274760711331e-04  -6.2417247090581918e-05  -5.5925837434692776e-05  8.7498378383890174e-05  6.4832509106466896e-05  4.8989734624295725e-04  2.9133254811392534e-04  3.3799723622291903e-04  1.2248382246204899e-05  3.1970215473562421e-05  2.6557787488209380e-05  -5.9843529450537641e-05  -9.5155303778622001e-06  2.7512353947233244e-05  8.0664960700408872e-05  -5.3777093168447302e-16  -1.2073793056804827e-04  -1.7052132590380429e-05  3.7583713709193303e-05  2.2344143527227361e-04  7.7404061208101229e-05  -5.4344196016932585e-05  -1.1818654582821236e-04  -1.2292312034879564e-04  -3.1080259122909931e-05  4.6248477001892563e-05  1.9336652032216387e-04  2.1256593244365461e-04  1.5343768666229902e-04  -1.1244107882850976e-15  -2.5688176013929302e-04  -1.9581705176268866e-04  -2.2360902832998912e-04  -3.3029201927933024e-04  -2.3117721742701769e-04  -5.7541097053633790e-05  -6.1077664007582708e-05  8.0662844282709182e-05  7.1271117166847204e-05  4.8290999824904712e-04  2.7138774560182404e-04  -7.3927090152683584e-06  1.1152068543518556e-05  3.2935239344089465e-05  2.8638731555563403e-05  -5.7897410912518555e-05  -9.1139263089716953e-06  2.9188566204778862e-05  7.3662724332667671e-05  -5.9155025661915148e-16  -1.1681151902317529e-04  -1.6332445346515442e-05  4.1045884038265536e-05  2.2442878883199513e-04  7.1357113713411478e-05  -5.0623759477130673e-05  -1.2175401749551086e-04  -1.3368312507996182e-04  -3.4166883559716085e-05  5.0841478582560947e-05  2.1029274760643571e-04  2.1898225450562491e-04  1.4293324979726139e-04  -1.0365697513536792e-15  -2.5801688138478646e-04  -2.1385550298613301e-04  -2.1417158322163224e-04  -3.1955088439672717e-04  -2.5429589856242155e-04  -5.2546160479808195e-05  -6.5863424215237404e-05  7.3660791633609410e-05  7.8398524660903187e-05  4.6720570893964088e-04  -2.3124147684929669e-05  -6.9098728001939419e-06  1.0214844835640487e-05  3.5034861207980387e-05  3.0383569273414202e-05  -5.5015384010578816e-05  -9.0455989303389118e-06  3.0397413198581078e-05  6.7069408379605202e-05  -6.4604321499119548e-16  -1.1099685589791213e-04  -1.6210000514358740e-05  4.4262047618030996e-05  2.2122778752131796e-04  6.5162858210122607e-05  -4.8487177806827847e-05  -1.2951583742581020e-04  -1.4695938506957890e-04  -3.7583713709325922e-05  5.5925837434547540e-05  2.3117721742627281e-04  2.3294237559539762e-04  1.3690073532682576e-04  -9.4658884331621513e-16  -2.5433681707669176e-04  -2.3061222040499105e-04  -2.1256593244467102e-04  -3.0364422759023306e-04  -2.7772135677072568e-04  -4.7842920933588192e-05  -6.9876206226011508e-05  6.7067648670286973e-05  8.5620510439749289e-05  -3.5042194937312535e-16  -2.2372147712689921e-05  -6.3700608398702875e-06  9.5155303777895992e-06  3.8101617659361937e-05  3.1641907422656171e-05  -5.1422192430649076e-05  -9.3186411592287784e-06  3.1032301152875014e-05  6.1432872040052803e-05  -6.9666414100346609e-16  -1.0374737513568802e-04  -1.6699300858629094e-05  4.6958748413015955e-05  2.1403343414053971e-04  5.9330338214749362e-05  -4.8123667981915061e-05  -1.4085293185937429e-04  -1.6165593346259346e-04  -4.1045884038410378e-05  6.1077664007424103e-05  2.5429589856160211e-04  2.5333285263814958e-04  1.3587438641191575e-04  -8.6186268937379302e-16  -2.4606575420392420e-04  -2.4466245512223995e-04  -2.1898225450667203e-04  -2.8381246777443842e-04  -2.9948230391310822e-04  -4.3822185266647308e-05  -7.2770135350244694e-05  6.1431260217315864e-05  2.3458736878100711e-05  -3.4542392249310189e-16  -2.1258503241444663e-05  -5.8170986702942535e-06  9.1139263089021539e-06  4.1885543130644161e-05  3.2302788193736587e-05  -4.7404996267595292e-05  -9.9127046337722503e-06  1.2194605750033070e-04  5.7227140450766339e-05  -7.3910896323794919e-16  -9.5642439550063776e-05  -1.7763881468721506e-05  4.8903549039861924e-05  2.0337924243515204e-04  5.4344196015721687e-05  -4.9576285289992620e-05  -1.5484123548817067e-04  -1.7654750007794261e-04  -4.4262047618187182e-05  6.5863424215066357e-05  2.7772135676983083e-04  2.7849169608621895e-04  1.3997576716079263e-04  -7.8943145006921310e-16  -2.3381705236934079e-04  -2.5479517186124734e-04  -2.3294237559651153e-04  -2.6164051627493870e-04  -3.1772850377299465e-04  -4.0822091949060938e-05  -7.4290030548707371e-05  8.0414925320471988e-06  2.3124147684421801e-05  -3.3419069635802384e-16  -1.9870057514438902e-05  -5.2964286867869943e-06  9.0455989302698939e-06  4.6074271270026088e-05  -3.1901031773038266e-05  -4.3289938304442911e-05  -1.0780407539908953e-05  1.2248491849457842e-04  5.4811862316668308e-05  -7.6971922487375992e-16  -8.7340061879488079e-05  -1.9318832629292089e-05  4.9924960763445050e-05  1.9009603820794959e-04  5.0623759476002717e-05  -5.2736774012660515e-05  -1.7032600163297088e-04  -1.9038093680743244e-04  -4.6958748413181655e-05  6.9876206225830053e-05  2.9948230391214323e-04  3.0634202144411312e-04  1.4889922382905113e-04  -7.3538649535884883e-16  -2.1854587906159907e-04  -2.6011688737599090e-04  -2.5333285263936091e-04  -2.3892844002240955e-04  -3.3088725723613591e-04  -3.9099190799430162e-05  -2.6729310991430733e-06  7.7799822596142558e-06  2.2372147712198577e-05  -3.1755529656895435e-16  -1.8317772109371540e-05  -4.8513149831748304e-06  9.3186411591576819e-06  5.0318582413916325e-05  -3.2041997557837807e-05  -3.9415193738374838e-05  -1.1851025040870660e-05  1.2073793056722823e-04  5.4400936142469066e-05  -7.8579577260064439e-16  -7.9522530983795753e-05  -2.1237413187077272e-05  2.1206764350108413e-04  1.7524538639393750e-04  4.8487177805747446e-05  -5.7353057233201310e-05  -1.8601624538285702e-04  -2.0198004826447763e-04  -4.8903549040034481e-05  7.2770135350055704e-05  3.1772850377197089e-04  3.3456191119205940e-04  1.6193303185736525e-04  -7.0434942259301104e-16  -2.0147267340235941e-04  -4.0187346793954515e-04  -2.7849169608755068e-04  -2.1754271597389685e-04  -3.3779825102617282e-04  -3.7981286975051636e-06  -2.4983553201695682e-06  7.3927090151733069e-06  2.1258503240977771e-05  -2.9681497023451911e-16  -1.6727671910641930e-05  -4.5191910241807868e-06  9.9127046336966187e-06  5.4261311287637114e-05  -3.1584986330743738e-05  -3.6102727187612705e-05  -1.3036176727083285e-05  1.1681151902238192e-04  5.6043033362611805e-05  -1.0284946705988739e-04  -7.2839429901907420e-05  -2.3361242641715729e-05  2.1300473801292964e-04  1.6003296197531061e-04  4.8123667980842765e-05  -6.3048870362733745e-05  -2.0059160872714087e-04  -2.1034506943199780e-04  -4.9924960763621213e-05  7.4290030548514451e-05  3.3088725723506965e-04  3.6077661844381481e-04  1.7801482999426090e-04  -6.9906889386633898e-16  -1.8398355212151447e-04  -4.0364928538649385e-04  -3.0634202144557804e-04  -1.9926035068074089e-04  2.8261581295205172e-06  -3.4581702889625712e-06  -2.3031792117283364e-06  6.9098728001050974e-06  1.9870057514002517e-05  -2.7362723935021027e-16  -1.5230431249708092e-05  -4.3284580401710994e-06  1.0780407539826698e-05  5.7567225251425096e-05  -3.0557838901677988e-05  -3.3631112640707949e-05  -1.4237054974993358e-05  1.1099685589715821e-04  5.9615777344750903e-05  -1.0330394313901435e-04  -6.7852798459959893e-05  -2.5513254594292427e-05  2.0996667658993527e-04  1.4570892100660408e-04  4.9576285288887960e-05  -6.9354019053796302e-05  -2.1281281357039424e-04  -2.1473838901992022e-04  7.3366070156449594e-05  3.3359698468892179e-04  3.3779825102508439e-04  3.8275722363780246e-04  1.9581705176081402e-04  -7.2017035219970004e-16  -1.6751577007444280e-04  -3.9789208329891616e-04  -3.3456191119365919e-04  2.0350157115184527e-06  2.8049703373390327e-06  -3.1675444586022543e-06  -2.1032484723124075e-06  6.3700608397883888e-06  1.8317772108969240e-05  -2.4987463859337468e-16  -1.3950460525646365e-05  -4.2960074605437727e-06  1.1851025040780239e-05  5.9951376864029020e-05  -2.9036725739763978e-05  -3.2211707611089624e-05  -1.5352604043226494e-05  1.0374737513498339e-04  6.4834210170581415e-05  -1.0183053119793924e-04  -6.4989063190875557e-05  -2.7512353947371317e-05  2.0313853584640412e-04  1.3346349275409483e-04  5.2736774011485423e-05  -7.5742834933671145e-05  -2.2162647464995220e-04  -4.9304033756586869e-05  7.3690263609841428e-05  3.3507109878930637e-04  4.0187346793762367e-04  3.9860914715828303e-04  2.1385550298408574e-04  -7.6608121993037217e-16  -1.5343768666376781e-04  -3.8495258647196077e-04  -5.9905758362846815e-07  2.2385257280493193e-06  2.8896386228528050e-06  -2.9506924484711448e-06  -1.9149933971522033e-06  5.8170986702194622e-06  1.6727671910274555e-05  -2.2750915515750345e-16  -1.2995403557455931e-05  -4.4256828376401580e-06  1.3036176726983823e-05  6.1203536275280669e-05  -2.7140264953144949e-05  -3.1970215473920940e-05  -1.6287973773197875e-05  9.5642439549414217e-05  7.1272987166041840e-05  -9.8518990479665958e-05  -6.4501838236767471e-05  -2.9188566204925345e-05  1.9302667219131634e-04  1.2432650128922510e-04  5.7353057231923408e-05  -8.1677689374003341e-05  -2.2625542048125254e-04  -4.9521900747903344e-05  7.2639228082595312e-05  3.3029201927826604e-04  4.0364928538456370e-04  4.0693459723355413e-04  2.3061222040278320e-04  -8.3313969947041827e-16  -1.4293324979862973e-04  -4.6399806684264171e-07  2.9366003826637645e-06  2.4447362536105915e-06  3.0738531162681758e-06  -2.8261581297002821e-06  -1.7540566879455426e-06  5.2964286867188988e-06  1.5230431249373593e-05  -2.0838920685904656e-16  -1.2446931035347174e-05  -4.7078201663377168e-06  1.4237054974884731e-05  3.1901031771994627e-05  -2.5020017583663808e-05  -3.2935239344458799e-05  -1.6962541615712726e-05  8.7340061878894872e-05  7.8400581667777890e-05  -9.3614895867501780e-05  -6.6448832108073375e-05  -3.0397413198733628e-05  1.8041962007865018e-04  1.1907928680869174e-04  6.3048870361328904e-05  -8.6653968188941900e-05  -2.1206764350204560e-04  -4.8815575725938670e-05  7.0276991936818277e-05  3.1955088439569751e-04  3.9789208329701366e-04  2.5688176013683399e-04  2.4466245511989764e-04  -9.1587997990016315e-16  -4.4846571247748306e-17  -4.2372005629139313e-07  2.9495767710304485e-06  2.6362943570653637e-06  3.3429210831413352e-06  -2.8049703375174475e-06  -1.6339729058120617e-06  4.8513149831124558e-06  1.3950460525339990e-05  -1.9412275567340074e-16  -1.2353616020408876e-05  -5.1199165003677639e-06  1.5352604043109353e-05  3.2041997556789574e-05  -2.2848119456836030e-05  -3.5034861208373282e-05  -1.7316825490977754e-05  7.9522530983255630e-05  8.5622756935832604e-05  -8.7500674152309686e-05  -7.0684945872619801e-05  -3.1032301153030753e-05  1.6632490782971107e-04  1.1818654582733328e-04  6.9354019052250988e-05  -9.0242749775928011e-05  -2.1300473801389523e-04  -4.7228087525683989e-05  6.6778732201934029e-05  3.0364422758925478e-04  3.8495258647012028e-04  2.5801688138231627e-04  2.5479517185880810e-04  -7.7369551445410825e-17  -4.8772190101492886e-17  -3.8579422294640434e-07  2.9075073058822909e-06  2.7969127077992420e-06  3.6749112980469954e-06  -2.8896386230366073e-06  -1.5650108888384592e-06  4.5191910241226812e-06  1.2995403557170523e-05  -1.8592978213993902e-16  -1.2726511046933729e-05  -5.6283826403039407e-06  1.6287973773073598e-05  3.1584986329710453e-05  -2.0803057020210562e-05  -3.8101617659789193e-05  3.0646346039810966e-05  7.2839429901412685e-05  9.2331755874664354e-05  -8.0664960701481203e-05  -7.6872312007269473e-05  4.9304033756412895e-05  1.5188683820996729e-04  1.2175401749460522e-04  7.5742834931983463e-05  -9.2127582357595599e-05  -2.0996667659088728e-04  -4.4877159968977739e-05  6.2417247090419871e-05  2.8381246777352389e-04  3.6579035291438316e-04  2.5433681707425691e-04  3.2917988563372421e-07  -7.7711435670870546e-17  -5.3615825195025801e-17  -3.5337194265850999e-07  2.8129548301283296e-06  2.9127470894893154e-06  4.0424176788488265e-06  -3.0738531164636956e-06  -1.5532779553100359e-06  4.3284580401154485e-06  1.2446931035073816e-05  -1.8453586099193923e-16  -1.3537826263623867e-05  -6.1912442622987968e-06  1.6962541615583303e-05  3.0557838900678300e-05  -1.9054760893837484e-05  -4.1885543131113851e-05  3.0781767560076406e-05  6.7852798459499039e-05  9.7957142246715828e-05  -7.3662724333647018e-05  -8.4506609900896870e-05  4.9521900747728598e-05  1.3829193084667973e-04  1.2951583742484691e-04  8.1677689372183413e-05  -2.2344143527393525e-04  -2.0313853584732507e-04  -4.1946121019932392e-05  5.7541097053484326e-05  2.6164051627409568e-04  3.4189967506582426e-04  -7.7022756045220514e-18  3.1528681018571995e-07  -7.6603046641407571e-17  -5.8977630221884331e-17  -3.2917988565949101e-07  2.6729310990737492e-06  2.9735834517462132e-06  4.4148007449215124e-06  -3.3429210833539706e-06  -1.6001637920876202e-06  4.2960074604885343e-06  1.2353616020137551e-05  -1.9010609279011855e-16  -1.4722852109314787e-05  -6.7615748674866037e-06  1.7316825490845627e-05  2.9036725738814057e-05  -1.7750260434128183e-05  -4.6074271270542765e-05  3.0342730844610601e-05  6.4989063190434138e-05  1.0201404576488216e-04  -6.7069408380496836e-05  -9.2957621596067747e-05  4.8815575725766431e-05  1.2666982901938508e-04  1.4085293185832668e-04  8.6653968187011112e-05  -2.2442878883366439e-04  -1.9302667219219140e-04  -3.8669212968150702e-05  5.2546160479671701e-05  2.3892844002163966e-04  -4.3207697969981972e-18  -7.8631472540277849e-18  3.1292309552233984e-07  -7.4111906655073714e-17  -6.4410584586456743e-17  -3.1528681021039937e-07  2.4983553201047710e-06  5.3030283073577810e-06  4.7607238916735991e-06  -3.6749112982807472e-06  -1.7021742511152006e-06  4.4256828375832569e-06  1.2726511046654237e-05  -2.0222535825866127e-16  -1.6184999349477150e-05  -7.2913802630871617e-06  6.0442335304502535e-05  2.7140264952257065e-05  -1.7001108623232102e-05  -5.0318582414480577e-05  2.9355981708438316e-05  6.4501838236329358e-05  1.0414473657076750e-04  -6.1432872040869464e-05  -1.0152077535573218e-04  4.7228087525517340e-05  1.1799793588424069e-04  1.5484123548701912e-04  9.0242749773917236e-05  -2.2122778752296337e-04  -1.8041962007946824e-04  -3.5312477069361104e-05  4.7842920933463963e-05  -7.7653516741087463e-18  -4.1384112040131222e-18  5.9160698118299543e-07  3.2236870770684292e-07  -7.0422751900697887e-17  -6.9457496868946299e-17  -3.1292309554683402e-07  2.3031792116686020e-06  5.3264615791240228e-06  5.0507748177891387e-06  -4.0424176791059553e-06  -1.8511730964365567e-06  4.7078201662771870e-06  1.3537826263326552e-05  -2.1992703883307787e-16  -1.7803566452679720e-05  -7.7356134608300248e-06  6.0709420748382103e-05  2.5020017582845296e-05  -1.6873650802453682e-05  -5.4261311288245595e-05  2.7894694792786680e-05  6.6448832107622062e-05  -7.7602266893149377e-16  -5.7227140451527083e-05  -1.0947546869317537e-04  4.4877159968819391e-05  1.1301781924439035e-04  1.7032600163170402e-04  9.2127582355542852e-05  -2.1403343414213162e-04  -1.6632490783046516e-04  -3.2151769662557826e-05  -4.5011169201679004e-18  -7.7996655765797856e-18  -4.1073854112111332e-18  5.9422120203292544e-07  3.4291971630478154e-07  -6.5823266798196163e-17  -7.3689250642304263e-17  -3.2236870773207667e-07  2.1032484722578585e-06  5.2504908866617006e-06  5.2599530936941990e-06  -4.4148007452023275e-06  -2.0350157115712334e-06  5.1199165003019351e-06  1.4722852108991444e-05  -2.4176830372382677e-16  -1.9443611393450332e-05  -8.0559845613402420e-06  5.9843529449866540e-05  2.284811945608857