<?xml version="1.0"?>
<VTKFile type="UnstructuredGrid"  version="0.1"  >
<UnstructuredGrid>
<Piece  NumberOfPoints="1089" NumberOfCells="2048">
<Points>
<DataArray  type="Float64"  NumberOfComponents="3"  format="ascii">0 0 0  0.03125 0 0  0.0625 0 0  0.09375 0 0  0.125 0 0  0.15625 0 0  0.1875 0 0  0.21875 0 0  0.25 0 0  0.28125 0 0  0.3125 0 0  0.34375 0 0  0.375 0 0  0.40625 0 0  0.4375 0 0  0.46875 0 0  0.5 0 0  0.53125 0 0  0.5625 0 0  0.59375 0 0  0.625 0 0  0.65625 0 0  0.6875 0 0  0.71875 0 0  0.75 0 0  0.78125 0 0  0.8125 0 0  0.84375 0 0  0.875 0 0  0.90625 0 0  0.9375 0 0  0.96875 0 0  1 0 0  0 0.03125 0  0.03125 0.03125 0  0.0625 0.03125 0  0.09375 0.03125 0  0.125 0.03125 0  0.15625 0.03125 0  0.1875 0.03125 0  0.21875 0.03125 0  0.25 0.03125 0  0.28125 0.03125 0  0.3125 0.03125 0  0.34375 0.03125 0  0.375 0.03125 0  0.40625 0.03125 0  0.4375 0.03125 0  0.46875 0.03125 0  0.5 0.03125 0  0.53125 0.03125 0  0.5625 0.03125 0  0.59375 0.03125 0  0.625 0.03125 0  0.65625 0.03125 0  0.6875 0.03125 0  0.71875 0.03125 0  0.75 0.03125 0  0.78125 0.03125 0  0.8125 0.03125 0  0.84375 0.03125 0  0.875 0.03125 0  0.90625 0.03125 0  0.9375 0.03125 0  0.96875 0.03125 0  1 0.03125 0  0 0.0625 0  0.03125 0.0625 0  0.0625 0.0625 0  0.09375 0.0625 0  0.125 0.0625 0  0.15625 0.0625 0  0.1875 0.0625 0  0.21875 0.0625 0  0.25 0.0625 0  0.28125 0.0625 0  0.3125 0.0625 0  0.34375 0.0625 0  0.375 0.0625 0  0.40625 0.0625 0  0.4375 0.0625 0  0.46875 0.0625 0  0.5 0.0625 0  0.53125 0.0625 0  0.5625 0.0625 0  0.59375 0.0625 0  0.625 0.0625 0  0.65625 0.0625 0  0.6875 0.0625 0  0.71875 0.0625 0  0.75 0.0625 0  0.78125 0.0625 0  0.8125 0.0625 0  0.84375 0.0625 0  0.875 0.0625 0  0.90625 0.0625 0  0.9375 0.0625 0  0.96875 0.0625 0  1 0.0625 0  0 0.09375 0  0.03125 0.09375 0  0.0625 0.09375 0  0.09375 0.09375 0  0.125 0.09375 0  0.15625 0.09375 0  0.1875 0.09375 0  0.21875 0.09375 0  0.25 0.09375 0  0.28125 0.09375 0  0.3125 0.09375 0  0.34375 0.09375 0  0.375 0.09375 0  0.40625 0.09375 0  0.4375 0.09375 0  0.46875 0.09375 0  0.5 0.09375 0  0.53125 0.09375 0  0.5625 0.09375 0  0.59375 0.09375 0  0.625 0.09375 0  0.65625 0.09375 0  0.6875 0.09375 0  0.71875 0.09375 0  0.75 0.09375 0  0.78125 0.09375 0  0.8125 0.09375 0  0.84375 0.09375 0  0.875 0.09375 0  0.90625 0.09375 0  0.9375 0.09375 0  0.96875 0.09375 0  1 0.09375 0  0 0.125 0  0.03125 0.125 0  0.0625 0.125 0  0.09375 0.125 0  0.125 0.125 0  0.15625 0.125 0  0.1875 0.125 0  0.21875 0.125 0  0.25 0.125 0  0.28125 0.125 0  0.3125 0.125 0  0.34375 0.125 0  0.375 0.125 0  0.40625 0.125 0  0.4375 0.125 0  0.46875 0.125 0  0.5 0.125 0  0.53125 0.125 0  0.5625 0.125 0  0.59375 0.125 0  0.625 0.125 0  0.65625 0.125 0  0.6875 0.125 0  0.71875 0.125 0  0.75 0.125 0  0.78125 0.125 0  0.8125 0.125 0  0.84375 0.125 0  0.875 0.125 0  0.90625 0.125 0  0.9375 0.125 0  0.96875 0.125 0  1 0.125 0  0 0.15625 0  0.03125 0.15625 0  0.0625 0.15625 0  0.09375 0.15625 0  0.125 0.15625 0  0.15625 0.15625 0  0.1875 0.15625 0  0.21875 0.15625 0  0.25 0.15625 0  0.28125 0.15625 0  0.3125 0.15625 0  0.34375 0.15625 0  0.375 0.15625 0  0.40625 0.15625 0  0.4375 0.15625 0  0.46875 0.15625 0  0.5 0.15625 0  0.53125 0.15625 0  0.5625 0.15625 0  0.59375 0.15625 0  0.625 0.15625 0  0.65625 0.15625 0  0.6875 0.15625 0  0.71875 0.15625 0  0.75 0.15625 0  0.78125 0.15625 0  0.8125 0.15625 0  0.84375 0.15625 0  0.875 0.15625 0  0.90625 0.15625 0  0.9375 0.15625 0  0.96875 0.15625 0  1 0.15625 0  0 0.1875 0  0.03125 0.1875 0  0.0625 0.1875 0  0.09375 0.1875 0  0.125 0.1875 0  0.15625 0.1875 0  0.1875 0.1875 0  0.21875 0.1875 0  0.25 0.1875 0  0.28125 0.1875 0  0.3125 0.1875 0  0.34375 0.1875 0  0.375 0.1875 0  0.40625 0.1875 0  0.4375 0.1875 0  0.46875 0.1875 0  0.5 0.1875 0  0.53125 0.1875 0  0.5625 0.1875 0  0.59375 0.1875 0  0.625 0.1875 0  0.65625 0.1875 0  0.6875 0.1875 0  0.71875 0.1875 0  0.75 0.1875 0  0.78125 0.1875 0  0.8125 0.1875 0  0.84375 0.1875 0  0.875 0.1875 0  0.90625 0.1875 0  0.9375 0.1875 0  0.96875 0.1875 0  1 0.1875 0  0 0.21875 0  0.03125 0.21875 0  0.0625 0.21875 0  0.09375 0.21875 0  0.125 0.21875 0  0.15625 0.21875 0  0.1875 0.21875 0  0.21875 0.21875 0  0.25 0.21875 0  0.28125 0.21875 0  0.3125 0.21875 0  0.34375 0.21875 0  0.375 0.21875 0  0.40625 0.21875 0  0.4375 0.21875 0  0.46875 0.21875 0  0.5 0.21875 0  0.53125 0.21875 0  0.5625 0.21875 0  0.59375 0.21875 0  0.625 0.21875 0  0.65625 0.21875 0  0.6875 0.21875 0  0.71875 0.21875 0  0.75 0.21875 0  0.78125 0.21875 0  0.8125 0.21875 0  0.84375 0.21875 0  0.875 0.21875 0  0.90625 0.21875 0  0.9375 0.21875 0  0.96875 0.21875 0  1 0.21875 0  0 0.25 0  0.03125 0.25 0  0.0625 0.25 0  0.09375 0.25 0  0.125 0.25 0  0.15625 0.25 0  0.1875 0.25 0  0.21875 0.25 0  0.25 0.25 0  0.28125 0.25 0  0.3125 0.25 0  0.34375 0.25 0  0.375 0.25 0  0.40625 0.25 0  0.4375 0.25 0  0.46875 0.25 0  0.5 0.25 0  0.53125 0.25 0  0.5625 0.25 0  0.59375 0.25 0  0.625 0.25 0  0.65625 0.25 0  0.6875 0.25 0  0.71875 0.25 0  0.75 0.25 0  0.78125 0.25 0  0.8125 0.25 0  0.84375 0.25 0  0.875 0.25 0  0.90625 0.25 0  0.9375 0.25 0  0.96875 0.25 0  1 0.25 0  0 0.28125 0  0.03125 0.28125 0  0.0625 0.28125 0  0.09375 0.28125 0  0.125 0.28125 0  0.15625 0.28125 0  0.1875 0.28125 0  0.21875 0.28125 0  0.25 0.28125 0  0.28125 0.28125 0  0.3125 0.28125 0  0.34375 0.28125 0  0.375 0.28125 0  0.40625 0.28125 0  0.4375 0.28125 0  0.46875 0.28125 0  0.5 0.28125 0  0.53125 0.28125 0  0.5625 0.28125 0  0.59375 0.28125 0  0.625 0.28125 0  0.65625 0.28125 0  0.6875 0.28125 0  0.71875 0.28125 0  0.75 0.28125 0  0.78125 0.28125 0  0.8125 0.28125 0  0.84375 0.28125 0  0.875 0.28125 0  0.90625 0.28125 0  0.9375 0.28125 0  0.96875 0.28125 0  1 0.28125 0  0 0.3125 0  0.03125 0.3125 0  0.0625 0.3125 0  0.09375 0.3125 0  0.125 0.3125 0  0.15625 0.3125 0  0.1875 0.3125 0  0.21875 0.3125 0  0.25 0.3125 0  0.28125 0.3125 0  0.3125 0.3125 0  0.34375 0.3125 0  0.375 0.3125 0  0.40625 0.3125 0  0.4375 0.3125 0  0.46875 0.3125 0  0.5 0.3125 0  0.53125 0.3125 0  0.5625 0.3125 0  0.59375 0.3125 0  0.625 0.3125 0  0.65625 0.3125 0  0.6875 0.3125 0  0.71875 0.3125 0  0.75 0.3125 0  0.78125 0.3125 0  0.8125 0.3125 0  0.84375 0.3125 0  0.875 0.3125 0  0.90625 0.3125 0  0.9375 0.3125 0  0.96875 0.3125 0  1 0.3125 0  0 0.34375 0  0.03125 0.34375 0  0.0625 0.34375 0  0.09375 0.34375 0  0.125 0.34375 0  0.15625 0.34375 0  0.1875 0.34375 0  0.21875 0.34375 0  0.25 0.34375 0  0.28125 0.34375 0  0.3125 0.34375 0  0.34375 0.34375 0  0.375 0.34375 0  0.40625 0.34375 0  0.4375 0.34375 0  0.46875 0.34375 0  0.5 0.34375 0  0.53125 0.34375 0  0.5625 0.34375 0  0.59375 0.34375 0  0.625 0.34375 0  0.65625 0.34375 0  0.6875 0.34375 0  0.71875 0.34375 0  0.75 0.34375 0  0.78125 0.34375 0  0.8125 0.34375 0  0.84375 0.34375 0  0.875 0.34375 0  0.90625 0.34375 0  0.9375 0.34375 0  0.96875 0.34375 0  1 0.34375 0  0 0.375 0  0.03125 0.375 0  0.0625 0.375 0  0.09375 0.375 0  0.125 0.375 0  0.15625 0.375 0  0.1875 0.375 0  0.21875 0.375 0  0.25 0.375 0  0.28125 0.375 0  0.3125 0.375 0  0.34375 0.375 0  0.375 0.375 0  0.40625 0.375 0  0.4375 0.375 0  0.46875 0.375 0  0.5 0.375 0  0.53125 0.375 0  0.5625 0.375 0  0.59375 0.375 0  0.625 0.375 0  0.65625 0.375 0  0.6875 0.375 0  0.71875 0.375 0  0.75 0.375 0  0.78125 0.375 0  0.8125 0.375 0  0.84375 0.375 0  0.875 0.375 0  0.90625 0.375 0  0.9375 0.375 0  0.96875 0.375 0  1 0.375 0  0 0.40625 0  0.03125 0.40625 0  0.0625 0.40625 0  0.09375 0.40625 0  0.125 0.40625 0  0.15625 0.40625 0  0.1875 0.40625 0  0.21875 0.40625 0  0.25 0.40625 0  0.28125 0.40625 0  0.3125 0.40625 0  0.34375 0.40625 0  0.375 0.40625 0  0.40625 0.40625 0  0.4375 0.40625 0  0.46875 0.40625 0  0.5 0.40625 0  0.53125 0.40625 0  0.5625 0.40625 0  0.59375 0.40625 0  0.625 0.40625 0  0.65625 0.40625 0  0.6875 0.40625 0  0.71875 0.40625 0  0.75 0.40625 0  0.78125 0.40625 0  0.8125 0.40625 0  0.84375 0.40625 0  0.875 0.40625 0  0.90625 0.40625 0  0.9375 0.40625 0  0.96875 0.40625 0  1 0.40625 0  0 0.4375 0  0.03125 0.4375 0  0.0625 0.4375 0  0.09375 0.4375 0  0.125 0.4375 0  0.15625 0.4375 0  0.1875 0.4375 0  0.21875 0.4375 0  0.25 0.4375 0  0.28125 0.4375 0  0.3125 0.4375 0  0.34375 0.4375 0  0.375 0.4375 0  0.40625 0.4375 0  0.4375 0.4375 0  0.46875 0.4375 0  0.5 0.4375 0  0.53125 0.4375 0  0.5625 0.4375 0  0.59375 0.4375 0  0.625 0.4375 0  0.65625 0.4375 0  0.6875 0.4375 0  0.71875 0.4375 0  0.75 0.4375 0  0.78125 0.4375 0  0.8125 0.4375 0  0.84375 0.4375 0  0.875 0.4375 0  0.90625 0.4375 0  0.9375 0.4375 0  0.96875 0.4375 0  1 0.4375 0  0 0.46875 0  0.03125 0.46875 0  0.0625 0.46875 0  0.09375 0.46875 0  0.125 0.46875 0  0.15625 0.46875 0  0.1875 0.46875 0  0.21875 0.46875 0  0.25 0.46875 0  0.28125 0.46875 0  0.3125 0.46875 0  0.34375 0.46875 0  0.375 0.46875 0  0.40625 0.46875 0  0.4375 0.46875 0  0.46875 0.46875 0  0.5 0.46875 0  0.53125 0.46875 0  0.5625 0.46875 0  0.59375 0.46875 0  0.625 0.46875 0  0.65625 0.46875 0  0.6875 0.46875 0  0.71875 0.46875 0  0.75 0.46875 0  0.78125 0.46875 0  0.8125 0.46875 0  0.84375 0.46875 0  0.875 0.46875 0  0.90625 0.46875 0  0.9375 0.46875 0  0.96875 0.46875 0  1 0.46875 0  0 0.5 0  0.03125 0.5 0  0.0625 0.5 0  0.09375 0.5 0  0.125 0.5 0  0.15625 0.5 0  0.1875 0.5 0  0.21875 0.5 0  0.25 0.5 0  0.28125 0.5 0  0.3125 0.5 0  0.34375 0.5 0  0.375 0.5 0  0.40625 0.5 0  0.4375 0.5 0  0.46875 0.5 0  0.5 0.5 0  0.53125 0.5 0  0.5625 0.5 0  0.59375 0.5 0  0.625 0.5 0  0.65625 0.5 0  0.6875 0.5 0  0.71875 0.5 0  0.75 0.5 0  0.78125 0.5 0  0.8125 0.5 0  0.84375 0.5 0  0.875 0.5 0  0.90625 0.5 0  0.9375 0.5 0  0.96875 0.5 0  1 0.5 0  0 0.53125 0  0.03125 0.53125 0  0.0625 0.53125 0  0.09375 0.53125 0  0.125 0.53125 0  0.15625 0.53125 0  0.1875 0.53125 0  0.21875 0.53125 0  0.25 0.53125 0  0.28125 0.53125 0  0.3125 0.53125 0  0.34375 0.53125 0  0.375 0.53125 0  0.40625 0.53125 0  0.4375 0.53125 0  0.46875 0.53125 0  0.5 0.53125 0  0.53125 0.53125 0  0.5625 0.53125 0  0.59375 0.53125 0  0.625 0.53125 0  0.65625 0.53125 0  0.6875 0.53125 0  0.71875 0.53125 0  0.75 0.53125 0  0.78125 0.531
[...]
<PointData  Scalars="theta"> 
<DataArray  type="Float64"  Name="theta"  format="ascii">0.0000000000000000e+00  -9.7530054782071667e-07  -2.7622369911576680e-06  -1.7894302776534794e-06  1.3422277036886153e-17  1.2197116628716137e-06  1.2853916029376138e-06  3.2303263153963973e-07  -5.8470604387462345e-07  -3.0082307603970082e-06  -3.8875541215134152e-06  -2.0608556202631608e-06  2.8954372768037605e-06  0.0000000000000000e+00  2.6498350683093840e-06  4.4865573600758991e-06  1.8588389202372967e-06  5.8470604387716169e-07  -1.9100824243315591e-06  -4.2389410215691632e-07  -7.5564060875379201e-06  -1.9274549393937271e-06  -1.0462758142500313e-05  -4.7658949516556861e-06  -9.6848427452835743e-06  -5.4346562850273028e-06  -3.0464103293276678e-06  0.0000000000000000e+00  5.1554188511954084e-17  3.6694194689357768e-17  2.8184927626430118e-17  2.2979518548985065e-17  1.9211413471594741e-17  2.9000264138579384e-07  7.0517792037073848e-07  -9.1439903277113093e-07  -2.5799220134417876e-06  -1.6777999953401578e-06  1.2362098698987767e-17  1.0841009872272848e-06  1.1085747643971263e-06  2.7859667247182135e-07  -5.1969692403356256e-07  -2.7706212192730993e-06  -3.6450362824490557e-06  -1.9248336758439540e-06  2.7146350438075671e-06  9.2136013595969436e-06  2.3552195990160504e-06  4.1974371687923697e-06  1.7646798415865691e-06  5.1969692403581863e-07  -1.7813577544761425e-06  -2.8864965251919614e-07  -7.0576632164983702e-06  -1.3124957287007867e-06  -9.7576497814609981e-06  -4.2360105091946690e-06  -9.1942591557939201e-06  -5.0844392391761944e-06  -2.7077026038662663e-06  6.6798989642248084e-17  4.8334946818154576e-17  3.4272280382762130e-17  2.6426663296598431e-17  2.1164447401666536e-17  -4.5252384324313313e-07  2.3931277809438378e-07  6.7589498696754994e-07  -8.5491810227875693e-07  -2.4136681385531224e-06  -1.5689856072870274e-06  1.1221336658391403e-17  9.3497343047176306e-07  9.1480582840718629e-07  2.2990047034912522e-07  -4.4820807433451074e-07  -2.5149510784032189e-06  -3.4086360001700355e-06  -1.8007946330132238e-06  2.5380501912803935e-06  8.8310010721762026e-06  2.0312385782789602e-06  3.9334419945611957e-06  1.6675350550777323e-06  4.4820807433645643e-07  -1.6618370206970812e-06  -1.4652368756259446e-07  -6.6028572761293796e-06  -6.6624613056343257e-07  -9.1029573375042333e-06  -3.6533102764030952e-06  -8.6881195593935359e-06  -4.7646566268731930e-06  -2.3352344680628958e-06  6.4025121787642177e-17  4.5190796935000840e-17  3.2063725478692142e-17  2.4712751505626894e-17  -1.0516082186837802e-06  -4.1678058040699419e-07  1.8431761702006201e-07  6.4475141703177930e-07  -7.9787627735523370e-07  -2.2618619970553828e-06  -1.4589445395237967e-06  9.9737196254491586e-18  7.7154845218452734e-07  7.0457930274653152e-07  1.7706830025528269e-07  -3.6986531888388589e-07  -2.2353323575723156e-06  -3.1695707446744956e-06  -1.6875347856874649e-06  2.3687064678614631e-06  8.4240903762881904e-06  1.6761962746875749e-06  3.6896667824055446e-06  1.5690696394979959e-06  3.6986531888549150e-07  -1.5521513636134596e-06  0.0000000000000000e+00  -6.1875747151430382e-06  0.0000000000000000e+00  -8.5021379764398718e-06  -3.0147443737373274e-06  -8.1750992781004132e-06  -4.4693668573352500e-06  -1.9270564067395705e-06  6.1075002469572142e-17  4.2175577675928120e-17  3.0047097604621249e-17  -3.3848762343991182e-07  -9.8600559431742743e-07  -3.7832048742739756e-07  1.2551063068651165e-07  6.1209167512218282e-07  -7.4410563422502214e-07  -2.1216830166709290e-06  -1.3437076544000867e-06  8.6017474041970417e-18  5.9424312088375997e-07  4.7978155363605011e-07  1.2057422615880598e-07  -2.8486859221598362e-07  -1.9278428737061489e-06  -2.9192175270568153e-06  -1.5829497553324167e-06  2.2090741115946586e-06  7.9973699221024679e-06  1.2909987735233669e-06  3.4594937772286560e-06  1.4710909000445434e-06  2.8486859221722023e-07  -1.4521285035153725e-06  -1.3755862371342875e-05  -5.8040995447964101e-06  -1.6571241256266806e-05  -7.9542480107523113e-06  -2.3219424525369460e-06  -7.6646146558682390e-06  -4.1905537120137244e-06  -1.4842101102240169e-06  5.7981261587284348e-17  3.9333272420857652e-17  1.7183020702111349e-07  -3.1719865697497129e-07  -9.2205780813278044e-07  -3.3625784387659835e-07  6.3711424129539194e-08  5.7839631934018403e-07  -6.9417964311614327e-07  -1.9893257647075084e-06  -1.2197116628518304e-06  7.0982390295752219e-18  4.0464840034864197e-07  2.4354563343390694e-07  6.1205617563040653e-08  -1.9398057141719216e-07  -1.5908732128488777e-06  -2.6498350682852572e-06  -1.4842003766713615e-06  2.0608556203192958e-06  7.5571185091230190e-06  8.7910245857179383e-07  3.2351269281475595e-06  1.3753976059382115e-06  1.9398057141803427e-07  -1.3607977933997310e-06  -1.3184641988390886e-05  -5.4420215812951622e-06  -1.5883110587257325e-05  -7.4539705783492731e-06  -1.5811210363249071e-06  -7.1660375628731751e-06  -3.9187736792070737e-06  -1.0106692459312628e-06  5.4789420695995150e-17  4.9411562194530749e-07  1.6075722202724900e-07  -2.9754025855280582e-07  -8.5738912967256205e-07  -2.9000264137424724e-07  0.0000000000000000e+00  5.4424289403125326e-07  -6.4836194298010375e-07  -1.8603072485994031e-06  -1.0841009872097010e-06  5.4670315283127228e-18  2.0540671110437258e-07  0.0000000000000000e+00  0.0000000000000000e+00  -9.8467981483733120e-08  -1.2252833380159425e-06  -2.3552195989946065e-06  -1.3879419691232217e-06  1.9248336758963837e-06  7.1108821242744682e-06  4.4624801329603511e-07  3.0082307604137451e-06  1.2836283601718152e-06  9.8467981484160594e-08  -1.2764623001483636e-06  -1.2577126282902656e-05  -5.0890771005553678e-06  -1.5151256120350949e-05  -6.9920104778440191e-06  -8.0260510519654747e-07  -6.6879053780858203e-06  -3.6439298323421973e-06  -5.1303365005820333e-07  8.3901259206992099e-18  4.6227410256471260e-07  1.5064649752289312e-07  -2.7897876248525108e-07  -7.8966698536497625e-07  -2.3931277808485540e-07  2.4923380126989518e-06  5.1025827577636081e-07  -6.0658056943890004e-07  -1.7298342888394181e-06  -9.3497343045659789e-07  3.7227617532994012e-18  0.0000000000000000e+00  1.2637012253087653e-06  -2.0330504585875556e-06  0.0000000000000000e+00  -8.3435369342538975e-07  -2.0312385782604657e-06  -1.2905984271771547e-06  1.8007946330622748e-06  6.6668513117469845e-06  0.0000000000000000e+00  2.7706212192885149e-06  1.1971218121949699e-06  0.0000000000000000e+00  -1.1968325717888285e-06  -1.1940034703864283e-05  -4.7321538276626090e-06  -1.4383772557810025e-05  -6.5558268984519547e-06  0.0000000000000000e+00  -6.2371926754025109e-06  -3.3561086629195820e-06  -4.0635209818865231e-07  7.8624342209342948e-18  4.3319966324815173e-07  1.4131017530308473e-07  -2.6088548354618561e-07  -7.1679730979036765e-07  -1.8431761701272332e-07  2.3888421913809376e-06  4.7706638039275220e-07  -5.6843006553026405e-07  -1.5932007775401413e-06  -7.7154845217201296e-07  1.8897399503162130e-18  5.0284422842728654e-06  1.2112252788089236e-06  -1.9486268266723048e-06  -8.7446033726466843e-06  -4.2353274575318724e-07  -1.6761962746723129e-06  -1.1886586079006804e-06  1.6875347857334310e-06  6.2331779314556152e-06  8.7446033726953362e-06  2.5149510784172114e-06  1.1168005645079553e-06  -3.0252478592981394e-06  -1.1192115178712235e-06  -1.1282741468638024e-05  -4.3583776817893224e-06  -1.3591952715257823e-05  -6.1306461295172925e-06  -1.0592512223823591e-05  -5.8187063587643789e-06  -1.1521192594589783e-07  -3.8100257772625522e-07  7.3751595711699658e-18  4.0635209819950132e-07  1.3249480263401726e-07  -2.4258823656060686e-07  -6.3710194371355672e-07  -1.2551063068151442e-07  2.2787702493081324e-06  4.4523556890949130e-07  -5.3320159133084999e-07  -1.4461818113984761e-06  -5.9424312087412148e-07  0.0000000000000000e+00  4.8196332216539930e-06  1.1554150125606109e-06  -1.8588389202292271e-06  -8.3814785061393969e-06  0.0000000000000000e+00  -1.2909987735116122e-06  -1.0789703864959894e-06  1.5829497553755343e-06  5.8172879844120949e-06  8.3814785061860295e-06  2.2353323575847530e-06  1.0430887611097909e-06  -2.8996226390056605e-06  -1.0407154310317699e-06  -1.0616512699290574e-05  -3.9561909706951332e-06  -1.2789368524555096e-05  -5.7006722387197177e-06  -1.0152651840986285e-05  2.6695746825600229e-08  -1.0611174213805934e-07  -3.5629250354751357e-07  6.9150739476523519e-18  3.8100257773642745e-07  1.2390179935062059e-07  -2.2342704709001691e-07  -5.4946300842101122e-07  -6.3711424127002489e-08  2.1633396410959093e-06  4.1523016134922861e-07  -4.9993880098160711e-07  -1.2853916029269431e-06  -4.0464840034207863e-07  4.2409949093624316e-06  4.5975564387253588e-06  1.0968877179911396e-06  -1.7646798415789083e-06  -7.9952806987074525e-06  -9.2136013595130535e-06  -8.7910245856378958e-07  -9.5900768746886226e-07  1.4842003767117891e-06  5.4252481092169786e-06  7.9952806987519370e-06  1.9278428737168753e-06  9.7587062525770375e-07  -2.7660151967454740e-06  -9.5851298856509074e-07  -9.9535768387758957e-06  -3.5163314966528384e-06  -1.1990751194324630e-05  -5.2503962384300207e-06  0.0000000000000000e+00  2.2029569474299531e-08  -9.6319857245362326e-08  -3.3130386927049395e-07  6.4665940680208225e-18  3.5629250355702607e-07  1.1521192594770057e-07  -2.0280942379085190e-07  -4.5342179773598216e-07  0.0000000000000000e+00  2.0442488221111918e-06  3.8737016890978034e-07  -4.6751507059424338e-07  -1.1085747643879235e-06  -2.0540671110104094e-07  4.0648850682760407e-06  4.3646682236131878e-06  1.0365045704777569e-06  -1.6675350550704932e-06  -7.5902815048837432e-06  -8.8310010720957955e-06  -4.4624801329197205e-07  -8.2708780636279439e-07  1.3879419691610273e-06  5.0612394572111003e-06  7.5902815049259737e-06  1.5908732128577292e-06  9.1449385524732318e-07  -2.6259033023666878e-06  -8.7006237355235297e-07  -9.3061045746118555e-06  -3.0326293960030708e-06  -1.1210762357088525e-05  1.6876551634975211e-07  1.2109063498400461e-07  1.6967074561640723e-08  -8.5610768108462096e-08  -3.0513534477221097e-07  6.0130584124154055e-18  3.3130386927933930e-07  1.0611174213971969e-07  -1.8026055111502389e-07  -3.4922341351404047e-07  1.3154381565669040e-06  1.9235390300113898e-06  3.6180270893489059e-07  -4.3472582299078769e-07  -9.1480582839959190e-07  0.0000000000000000e+00  3.8775852142370251e-06  4.1243953124750421e-06  9.7530054782671239e-07  -1.5690696394911843e-06  -7.1724401157788680e-06  -8.4240903762114882e-06  0.0000000000000000e+00  -6.8252026851492696e-07  1.2905984272123089e-06  4.7271842107532456e-06  7.1724401158187735e-06  1.2252833380227598e-06  8.5781806496334175e-07  -2.4813485736902867e-06  -7.7332660400797113e-07  -8.6851828904761730e-06  -2.5025529499323371e-06  -1.0496239669907108e-07  1.5822714881085179e-07  1.1606227420078238e-07  1.1553687941314939e-08  -7.3834259434089070e-08  -2.7697776190248958e-07  5.5381081296994870e-18  3.0513534478035768e-07  9.6319857246869462e-08  -1.5546413834176304e-07  -2.3780282964418358e-07  1.2608138031632830e-06  1.8034258593108656e-06  3.3848762344306373e-07  -4.0038836302082107e-07  -7.0457930274068233e-07  3.9017116170257723e-17  3.6811669839174059e-06  3.8808560254169710e-06  9.1439903277675205e-07  -1.4710909000381569e-06  -6.7489184065527804e-06  -7.9973699220296502e-06  -3.7516308614357843e-06  -5.2567401733537654e-07  1.1886586079330579e-06  4.4225576800846758e-06  6.7489184065903294e-06  8.3435369343003191e-07  8.0430467918845975e-07  -2.3348287042802781e-06  -6.6694877722938937e-07  -8.0998692485260299e-06  -3.0953698302301926e-08  -9.8360852687808338e-08  1.4793459850936822e-07  1.1071441155470216e-07  5.8648570934841592e-09  -6.0928692439760935e-08  -2.4618266288571124e-07  5.0270570788292488e-18  2.7697776190988455e-07  8.5610768109801665e-08  -1.2829039991785203e-07  -1.2071293766746526e-07  1.2027186203139895e-06  1.6861144401804954e-06  3.1719865697792500e-07  -3.6344092738288452e-07  -4.7978155363206704e-07  3.7396907168538758e-17  3.4785204911493333e-06  3.6385204580215403e-06  8.5491810228401246e-07  -1.3753976059322403e-06  -6.3274899998698222e-06  -7.5571185090542094e-06  -3.5958421540823064e-06  -3.5795643692644986e-07  1.0789703865253791e-06  4.1444036926987775e-06  6.3274899999050266e-06  4.2353274575554369e-07  7.5214117834376106e-07  -2.1890330254101490e-06  -5.5037210682880394e-07  -1.1071441155121461e-07  -2.6695746824759311e-08  -9.2264935228001961e-08  1.3806410980897619e-07  1.0510619727004676e-07  0.0000000000000000e+00  -4.6927002762116850e-08  -2.1231808803128634e-07  4.4681359602448480e-18  2.4618266289228401e-07  7.3834259435244370e-08  -9.8808684549570143e-08  0.0000000000000000e+00  1.1417951718473614e-06  1.5736135533219320e-06  2.9754025855557647e-07  -3.2303263153765381e-07  -2.4354563343188507e-07  3.5673750145270552e-17  3.2731191325867804e-06  3.4018375934270970e-06  7.9787627736013865e-07  -1.2836283601662425e-06  -5.9158918032566268e-06  -7.1108821242097219e-06  -3.4301546378808718e-06  -1.8170504162218817e-07  9.5900768749498433e-07  3.8875541215488110e-06  5.9158918032895408e-06  0.0000000000000000e+00  6.9938963110888524e-07  -2.0466381665318132e-06  1.1709627604384596e-08  -1.0510619726673586e-07  -2.2029569473605596e-08  -8.6509158713128051e-08  1.2875966476113385e-07  9.9320151068388762e-08  -3.3490868102906335e-07  -3.1954827802813247e-08  -1.7520678861287118e-07  3.8535048448291180e-18  2.1231808803695492e-07  6.0928692440714297e-08  -6.7283532174633569e-08  -1.3154381565145294e-06  1.0789398903441692e-06  1.4675642632227034e-06  2.7897876248784893e-07  -2.7859667247010854e-07  0.0000000000000000e+00  3.3866704139763987e-17  3.0687329927884007e-06  3.1748602678735712e-06  7.4410563422959665e-07  -1.1971218121897727e-06  -5.5211718135776162e-06  -6.6668513116862811e-06  -3.2564009054750793e-06  0.0000000000000000e+00  8.2708780638532313e-07  3.6450362824822433e-06  5.5211718136083339e-06  2.0330504585963816e-06  6.4414731010666590e-07  5.4208408105059513e-19  1.0973157931274262e-08  -9.9320151065260154e-08  -1.6967074561106255e-08  -8.0898572712112085e-08  1.2012049636571944e-07  9.3455446802885195e-08  -3.2100139845622297e-07  -1.6220837836569153e-08  -1.3494347447726206e-07  3.1799467253452342e-18  1.7520678861754895e-07  4.6927002762851128e-08  -3.4154315310697105e-08  -1.2608138031130832e-06  1.0152301264235889e-06  1.3690975980244554e-06  2.6088548354861496e-07  -2.2990047034771184e-07  -4.2409949092936424e-06  3.2002358174063262e-17  2.8691143500493197e-06  2.9608994279573950e-06  6.9417964312041072e-07  -1.1168005645031068e-06  -5.1490878606212258e-06  -6.2331779313988614e-06  -3.0771375834295654e-06  3.7516308615379733e-06  6.8252026853351775e-07  3.4086360002010712e-06  5.1490878606498741e-06  1.9486268266807642e-06  2.4426508188155314e-18  3.6913082969368469e-19  1.0293096065251434e-08  -9.3455446799941332e-08  -1.1553687940950996e-08  -7.5224737795834463e-08  1.1219222457432678e-07  8.7619729482055870e-08  -3.0621044765016006e-07  0.0000000000000000e+00  -9.1889429032857259e-08  2.4491805549773873e-18  1.3494347448086483e-07  3.1954827803313247e-08  0.0000000000000000e+00  -1.2027186202661027e-06  9.5183525500540462e-07  1.2787335203317290e-06  2.4258823656286584e-07  -1.7706830025419410e-07  -4.0648850682101094e-06  3.0112667467085097e-17  2.6776813718437444e-06  2.7622369911805997e-06  6.4836194298408967e-07  -1.0430887611052625e-06  -4.8036082634724276e-06  -5.8172879843591282e-06  -2.8954372767248924e-06  3.5958421541802522e-06  5.2567401734969499e-07  3.1695707447033544e-06  4.8036082634991532e-06  -5.3781203198671724e-09  2.2780351895532869e-18  1.8737736175227785e-19  9.6509803963755876e-09  -8.7619729479295826e-08  -5.8648570932994159e-09  -6.9283000990219313e-08  1.0496239670717447e-07  8.1920135702643789e-08  -2.9069942444633930e-07  -9.6306472586275683e-07  -4.6644705345765751e-08  1.6677635111075350e-18  9.1889429035310558e-08  1.6220837836822962e-08  -2.4923380126648972e-06  -1.1417951718019005e-06  8.8991912800383746e-07  1.1963300982137253e-06  2.2342704709209749e-07  -1.2057422615806472e-07  -3.8775852141741321e-06  2.8232316763881177e-17  2.4972265149339913e-06  2.5799220134632052e-06  6.0658056944262911e-07  -9.7587062525346752e-07  -4.4865573600509370e-06  -5.4252481091675813e-06  -2.7146350437336241e-06  3.4301546379743050e-06  3.5795643693620005e-07  2.9192175270833947e-06  -1.5402461852607231e-08  -4.4380730758968775e-09  2.1251897340316357e-18  0.0000000000000000e+00  9.0250622125270661e-09  -8.1920135700063276e-08  0.0000000000000000e+00  -6.2889635307520621e-08  9.8360852695402068e-08  7.6454262391497293e-08  -2.7469655930299878e-07  -9.2307288917057467e-07  0.0000000000000000e+00  8.4658636342396011e-19  4.6644705347011088e-08  0.0000000000000000e+00  -2.3888421913482971e-06  -1.0789398903012109e-06  8.3054196548922570e-07  1.1210876681270838e-06  2.0280942379274046e-07  -6.1205617562664372e-08  -3.6811669838576981e-06  2.6395826992034036e-17  2.3296743515757602e-06  2.4136681385731602e-06  5.6843006553375849e-07  -9.1449385524335324e-07  -4.1974371687690161e-06  -5.0612394571650175e-06  -2.5380501912112608e-06  3.2564009055637801e-06  1.8170504162713754e-07  5.4387976394037893e-20  -1.4364455957321658e-08  -3.4181837678036071e-09  1.9849215672370070e-18  2.4394897392059825e-08  8.3920879660562481e-09  -7.6454262389088967e-08  -2.1867022453726345e-07  -5.5897404114945697e-08  9.2264935235125072e-08  7.1301840925272349e-08  -2.5847614415326591e-07  -8.8053997261695956e-07  1.7479314275142193e-17  0.0000000000000000e+00  0.0000000000000000e+00  -7.0517792036417228e-07  -2.2787702492769959e-06  -1.0152301263831673e-06  7.7456990954714566e-07  1.0516082186981489e-06  1.8026055111670247e-07  0.0000000000000000e+00  -3.4785204910929129e-06  2.4634645262488358e-17  2.1759096569270268e-06  2.2618619970741607e-06  5.3320159133412791e-07  -8.5781806495961798e-07  -3.9334419945393109e-06  -4.7271842107102044e-06  -2.3687064677969429e-06  3.0771375835133831e-06  1.8631618219841993e-19  3.7035359556736250e-20  -1.3400668468793851e-08  -2.3276038798436240e-09  1.8570103745017696e-18  2.3381884739403677e-08  7.7292265270544941e-09  -7.1301840923026322e-08  -2.0958981314403869e-07  -4.8208228103808775e-08  8.6509158719806800e-08  6.6517822484410298e-08  -2.4233590018612854e-07  -8.3593641303248220e-07  1.6753475332846190e-17  9.6306472588846936e-07  3.3490868103430373e-07  -6.7589498696125627e-07  -2.1633396410663504e-06  -9.5183525496750689e-07  7.2259990873196358e-07  9.8600559433089970e-07  1.5546413834321070e-07  -5.0284422842311219e-06  -3.2731191325336913e-06  2.2974462153097746e-17  2.0356909177608840e-06  2.1216830166885427e-06  4.9993880098468067e-07  -8.0430467918496817e-07  -3.6896667823850159e-06  -4.4225576800444078e-06  -2.2090741115344866e-06  3.5489516947903675e-19  1.7459794294822756e-19  1.8799805941559849e-20  -1.2516188758657855e-08  -1.1815330477039426e-09  1.7402148734253979e-18  2.2304505299324024e-08  7.0159812731595223e-09  -6.6517822482314989e-08  -1.9993243273830144e-07  -3.9781861776847153e-08  8.0898572718357669e-08  6.2127469533966465e-08  -2.2657214244122530e-07  -7.8991851082423078e-07  1.5981516610328320e-17  9.2307288919521951e-07  3.2100139846124577e-07  -6.4475141702577575e-07  -2.0442488220832601e-06  -8.8991912796840501e-07  6.7490639558313263e-07  9.2205780814537899e-07  1.2829039991904667e-07  -4.8196332216139834e-06  -3.0687329927386269e-06  2.1432983711825834e-17  1.9076574161492989e-06  1.9893257647240230e-06  4.6751507059711757e-07  -7.5214117834049607e-07  -3.4594937772094080e-06  -4.1444036926610422e-06  9.9222114366897832e-20  3.3691803234685641e-19  1.6377722901803709e-19  0.0000000000000000e+00  -1.1709627603272852e-08  0.0000000000000000e+00  1.6323649926969494e-18  2.1174675465291651e-08  6.2359264538745232e-09  -6.2127469532009448e-08  -1.8980489911821038e-07  -3.0639809632054235e-08  7.5224737801642026e-08  5.8123886288723358e-08  -2.1145480143834892e-07  -7.4327502095840080e-07  1.5171976384391093e-17  8.8053997264046885e-07  3.0621044765495147e-07  -6.1209167511648324e-07  -1.9235390299851073e-06  -8.3054