<?xml version="1.0"?>
<VTKFile type="UnstructuredGrid"  version="0.1"  >
<UnstructuredGrid>
<Piece  NumberOfPoints="1089" NumberOfCells="2048">
<Points>
<DataArray  type="Float64"  NumberOfComponents="3"  format="ascii">0 0 0  0.03125 0 0  0.0625 0 0  0.09375 0 0  0.125 0 0  0.15625 0 0  0.1875 0 0  0.21875 0 0  0.25 0 0  0.28125 0 0  0.3125 0 0  0.34375 0 0  0.375 0 0  0.40625 0 0  0.4375 0 0  0.46875 0 0  0.5 0 0  0.53125 0 0  0.5625 0 0  0.59375 0 0  0.625 0 0  0.65625 0 0  0.6875 0 0  0.71875 0 0  0.75 0 0  0.78125 0 0  0.8125 0 0  0.84375 0 0  0.875 0 0  0.90625 0 0  0.9375 0 0  0.96875 0 0  1 0 0  0 0.03125 0  0.03125 0.03125 0  0.0625 0.03125 0  0.09375 0.03125 0  0.125 0.03125 0  0.15625 0.03125 0  0.1875 0.03125 0  0.21875 0.03125 0  0.25 0.03125 0  0.28125 0.03125 0  0.3125 0.03125 0  0.34375 0.03125 0  0.375 0.03125 0  0.40625 0.03125 0  0.4375 0.03125 0  0.46875 0.03125 0  0.5 0.03125 0  0.53125 0.03125 0  0.5625 0.03125 0  0.59375 0.03125 0  0.625 0.03125 0  0.65625 0.03125 0  0.6875 0.03125 0  0.71875 0.03125 0  0.75 0.03125 0  0.78125 0.03125 0  0.8125 0.03125 0  0.84375 0.03125 0  0.875 0.03125 0  0.90625 0.03125 0  0.9375 0.03125 0  0.96875 0.03125 0  1 0.03125 0  0 0.0625 0  0.03125 0.0625 0  0.0625 0.0625 0  0.09375 0.0625 0  0.125 0.0625 0  0.15625 0.0625 0  0.1875 0.0625 0  0.21875 0.0625 0  0.25 0.0625 0  0.28125 0.0625 0  0.3125 0.0625 0  0.34375 0.0625 0  0.375 0.0625 0  0.40625 0.0625 0  0.4375 0.0625 0  0.46875 0.0625 0  0.5 0.0625 0  0.53125 0.0625 0  0.5625 0.0625 0  0.59375 0.0625 0  0.625 0.0625 0  0.65625 0.0625 0  0.6875 0.0625 0  0.71875 0.0625 0  0.75 0.0625 0  0.78125 0.0625 0  0.8125 0.0625 0  0.84375 0.0625 0  0.875 0.0625 0  0.90625 0.0625 0  0.9375 0.0625 0  0.96875 0.0625 0  1 0.0625 0  0 0.09375 0  0.03125 0.09375 0  0.0625 0.09375 0  0.09375 0.09375 0  0.125 0.09375 0  0.15625 0.09375 0  0.1875 0.09375 0  0.21875 0.09375 0  0.25 0.09375 0  0.28125 0.09375 0  0.3125 0.09375 0  0.34375 0.09375 0  0.375 0.09375 0  0.40625 0.09375 0  0.4375 0.09375 0  0.46875 0.09375 0  0.5 0.09375 0  0.53125 0.09375 0  0.5625 0.09375 0  0.59375 0.09375 0  0.625 0.09375 0  0.65625 0.09375 0  0.6875 0.09375 0  0.71875 0.09375 0  0.75 0.09375 0  0.78125 0.09375 0  0.8125 0.09375 0  0.84375 0.09375 0  0.875 0.09375 0  0.90625 0.09375 0  0.9375 0.09375 0  0.96875 0.09375 0  1 0.09375 0  0 0.125 0  0.03125 0.125 0  0.0625 0.125 0  0.09375 0.125 0  0.125 0.125 0  0.15625 0.125 0  0.1875 0.125 0  0.21875 0.125 0  0.25 0.125 0  0.28125 0.125 0  0.3125 0.125 0  0.34375 0.125 0  0.375 0.125 0  0.40625 0.125 0  0.4375 0.125 0  0.46875 0.125 0  0.5 0.125 0  0.53125 0.125 0  0.5625 0.125 0  0.59375 0.125 0  0.625 0.125 0  0.65625 0.125 0  0.6875 0.125 0  0.71875 0.125 0  0.75 0.125 0  0.78125 0.125 0  0.8125 0.125 0  0.84375 0.125 0  0.875 0.125 0  0.90625 0.125 0  0.9375 0.125 0  0.96875 0.125 0  1 0.125 0  0 0.15625 0  0.03125 0.15625 0  0.0625 0.15625 0  0.09375 0.15625 0  0.125 0.15625 0  0.15625 0.15625 0  0.1875 0.15625 0  0.21875 0.15625 0  0.25 0.15625 0  0.28125 0.15625 0  0.3125 0.15625 0  0.34375 0.15625 0  0.375 0.15625 0  0.40625 0.15625 0  0.4375 0.15625 0  0.46875 0.15625 0  0.5 0.15625 0  0.53125 0.15625 0  0.5625 0.15625 0  0.59375 0.15625 0  0.625 0.15625 0  0.65625 0.15625 0  0.6875 0.15625 0  0.71875 0.15625 0  0.75 0.15625 0  0.78125 0.15625 0  0.8125 0.15625 0  0.84375 0.15625 0  0.875 0.15625 0  0.90625 0.15625 0  0.9375 0.15625 0  0.96875 0.15625 0  1 0.15625 0  0 0.1875 0  0.03125 0.1875 0  0.0625 0.1875 0  0.09375 0.1875 0  0.125 0.1875 0  0.15625 0.1875 0  0.1875 0.1875 0  0.21875 0.1875 0  0.25 0.1875 0  0.28125 0.1875 0  0.3125 0.1875 0  0.34375 0.1875 0  0.375 0.1875 0  0.40625 0.1875 0  0.4375 0.1875 0  0.46875 0.1875 0  0.5 0.1875 0  0.53125 0.1875 0  0.5625 0.1875 0  0.59375 0.1875 0  0.625 0.1875 0  0.65625 0.1875 0  0.6875 0.1875 0  0.71875 0.1875 0  0.75 0.1875 0  0.78125 0.1875 0  0.8125 0.1875 0  0.84375 0.1875 0  0.875 0.1875 0  0.90625 0.1875 0  0.9375 0.1875 0  0.96875 0.1875 0  1 0.1875 0  0 0.21875 0  0.03125 0.21875 0  0.0625 0.21875 0  0.09375 0.21875 0  0.125 0.21875 0  0.15625 0.21875 0  0.1875 0.21875 0  0.21875 0.21875 0  0.25 0.21875 0  0.28125 0.21875 0  0.3125 0.21875 0  0.34375 0.21875 0  0.375 0.21875 0  0.40625 0.21875 0  0.4375 0.21875 0  0.46875 0.21875 0  0.5 0.21875 0  0.53125 0.21875 0  0.5625 0.21875 0  0.59375 0.21875 0  0.625 0.21875 0  0.65625 0.21875 0  0.6875 0.21875 0  0.71875 0.21875 0  0.75 0.21875 0  0.78125 0.21875 0  0.8125 0.21875 0  0.84375 0.21875 0  0.875 0.21875 0  0.90625 0.21875 0  0.9375 0.21875 0  0.96875 0.21875 0  1 0.21875 0  0 0.25 0  0.03125 0.25 0  0.0625 0.25 0  0.09375 0.25 0  0.125 0.25 0  0.15625 0.25 0  0.1875 0.25 0  0.21875 0.25 0  0.25 0.25 0  0.28125 0.25 0  0.3125 0.25 0  0.34375 0.25 0  0.375 0.25 0  0.40625 0.25 0  0.4375 0.25 0  0.46875 0.25 0  0.5 0.25 0  0.53125 0.25 0  0.5625 0.25 0  0.59375 0.25 0  0.625 0.25 0  0.65625 0.25 0  0.6875 0.25 0  0.71875 0.25 0  0.75 0.25 0  0.78125 0.25 0  0.8125 0.25 0  0.84375 0.25 0  0.875 0.25 0  0.90625 0.25 0  0.9375 0.25 0  0.96875 0.25 0  1 0.25 0  0 0.28125 0  0.03125 0.28125 0  0.0625 0.28125 0  0.09375 0.28125 0  0.125 0.28125 0  0.15625 0.28125 0  0.1875 0.28125 0  0.21875 0.28125 0  0.25 0.28125 0  0.28125 0.28125 0  0.3125 0.28125 0  0.34375 0.28125 0  0.375 0.28125 0  0.40625 0.28125 0  0.4375 0.28125 0  0.46875 0.28125 0  0.5 0.28125 0  0.53125 0.28125 0  0.5625 0.28125 0  0.59375 0.28125 0  0.625 0.28125 0  0.65625 0.28125 0  0.6875 0.28125 0  0.71875 0.28125 0  0.75 0.28125 0  0.78125 0.28125 0  0.8125 0.28125 0  0.84375 0.28125 0  0.875 0.28125 0  0.90625 0.28125 0  0.9375 0.28125 0  0.96875 0.28125 0  1 0.28125 0  0 0.3125 0  0.03125 0.3125 0  0.0625 0.3125 0  0.09375 0.3125 0  0.125 0.3125 0  0.15625 0.3125 0  0.1875 0.3125 0  0.21875 0.3125 0  0.25 0.3125 0  0.28125 0.3125 0  0.3125 0.3125 0  0.34375 0.3125 0  0.375 0.3125 0  0.40625 0.3125 0  0.4375 0.3125 0  0.46875 0.3125 0  0.5 0.3125 0  0.53125 0.3125 0  0.5625 0.3125 0  0.59375 0.3125 0  0.625 0.3125 0  0.65625 0.3125 0  0.6875 0.3125 0  0.71875 0.3125 0  0.75 0.3125 0  0.78125 0.3125 0  0.8125 0.3125 0  0.84375 0.3125 0  0.875 0.3125 0  0.90625 0.3125 0  0.9375 0.3125 0  0.96875 0.3125 0  1 0.3125 0  0 0.34375 0  0.03125 0.34375 0  0.0625 0.34375 0  0.09375 0.34375 0  0.125 0.34375 0  0.15625 0.34375 0  0.1875 0.34375 0  0.21875 0.34375 0  0.25 0.34375 0  0.28125 0.34375 0  0.3125 0.34375 0  0.34375 0.34375 0  0.375 0.34375 0  0.40625 0.34375 0  0.4375 0.34375 0  0.46875 0.34375 0  0.5 0.34375 0  0.53125 0.34375 0  0.5625 0.34375 0  0.59375 0.34375 0  0.625 0.34375 0  0.65625 0.34375 0  0.6875 0.34375 0  0.71875 0.34375 0  0.75 0.34375 0  0.78125 0.34375 0  0.8125 0.34375 0  0.84375 0.34375 0  0.875 0.34375 0  0.90625 0.34375 0  0.9375 0.34375 0  0.96875 0.34375 0  1 0.34375 0  0 0.375 0  0.03125 0.375 0  0.0625 0.375 0  0.09375 0.375 0  0.125 0.375 0  0.15625 0.375 0  0.1875 0.375 0  0.21875 0.375 0  0.25 0.375 0  0.28125 0.375 0  0.3125 0.375 0  0.34375 0.375 0  0.375 0.375 0  0.40625 0.375 0  0.4375 0.375 0  0.46875 0.375 0  0.5 0.375 0  0.53125 0.375 0  0.5625 0.375 0  0.59375 0.375 0  0.625 0.375 0  0.65625 0.375 0  0.6875 0.375 0  0.71875 0.375 0  0.75 0.375 0  0.78125 0.375 0  0.8125 0.375 0  0.84375 0.375 0  0.875 0.375 0  0.90625 0.375 0  0.9375 0.375 0  0.96875 0.375 0  1 0.375 0  0 0.40625 0  0.03125 0.40625 0  0.0625 0.40625 0  0.09375 0.40625 0  0.125 0.40625 0  0.15625 0.40625 0  0.1875 0.40625 0  0.21875 0.40625 0  0.25 0.40625 0  0.28125 0.40625 0  0.3125 0.40625 0  0.34375 0.40625 0  0.375 0.40625 0  0.40625 0.40625 0  0.4375 0.40625 0  0.46875 0.40625 0  0.5 0.40625 0  0.53125 0.40625 0  0.5625 0.40625 0  0.59375 0.40625 0  0.625 0.40625 0  0.65625 0.40625 0  0.6875 0.40625 0  0.71875 0.40625 0  0.75 0.40625 0  0.78125 0.40625 0  0.8125 0.40625 0  0.84375 0.40625 0  0.875 0.40625 0  0.90625 0.40625 0  0.9375 0.40625 0  0.96875 0.40625 0  1 0.40625 0  0 0.4375 0  0.03125 0.4375 0  0.0625 0.4375 0  0.09375 0.4375 0  0.125 0.4375 0  0.15625 0.4375 0  0.1875 0.4375 0  0.21875 0.4375 0  0.25 0.4375 0  0.28125 0.4375 0  0.3125 0.4375 0  0.34375 0.4375 0  0.375 0.4375 0  0.40625 0.4375 0  0.4375 0.4375 0  0.46875 0.4375 0  0.5 0.4375 0  0.53125 0.4375 0  0.5625 0.4375 0  0.59375 0.4375 0  0.625 0.4375 0  0.65625 0.4375 0  0.6875 0.4375 0  0.71875 0.4375 0  0.75 0.4375 0  0.78125 0.4375 0  0.8125 0.4375 0  0.84375 0.4375 0  0.875 0.4375 0  0.90625 0.4375 0  0.9375 0.4375 0  0.96875 0.4375 0  1 0.4375 0  0 0.46875 0  0.03125 0.46875 0  0.0625 0.46875 0  0.09375 0.46875 0  0.125 0.46875 0  0.15625 0.46875 0  0.1875 0.46875 0  0.21875 0.46875 0  0.25 0.46875 0  0.28125 0.46875 0  0.3125 0.46875 0  0.34375 0.46875 0  0.375 0.46875 0  0.40625 0.46875 0  0.4375 0.46875 0  0.46875 0.46875 0  0.5 0.46875 0  0.53125 0.46875 0  0.5625 0.46875 0  0.59375 0.46875 0  0.625 0.46875 0  0.65625 0.46875 0  0.6875 0.46875 0  0.71875 0.46875 0  0.75 0.46875 0  0.78125 0.46875 0  0.8125 0.46875 0  0.84375 0.46875 0  0.875 0.46875 0  0.90625 0.46875 0  0.9375 0.46875 0  0.96875 0.46875 0  1 0.46875 0  0 0.5 0  0.03125 0.5 0  0.0625 0.5 0  0.09375 0.5 0  0.125 0.5 0  0.15625 0.5 0  0.1875 0.5 0  0.21875 0.5 0  0.25 0.5 0  0.28125 0.5 0  0.3125 0.5 0  0.34375 0.5 0  0.375 0.5 0  0.40625 0.5 0  0.4375 0.5 0  0.46875 0.5 0  0.5 0.5 0  0.53125 0.5 0  0.5625 0.5 0  0.59375 0.5 0  0.625 0.5 0  0.65625 0.5 0  0.6875 0.5 0  0.71875 0.5 0  0.75 0.5 0  0.78125 0.5 0  0.8125 0.5 0  0.84375 0.5 0  0.875 0.5 0  0.90625 0.5 0  0.9375 0.5 0  0.96875 0.5 0  1 0.5 0  0 0.53125 0  0.03125 0.53125 0  0.0625 0.53125 0  0.09375 0.53125 0  0.125 0.53125 0  0.15625 0.53125 0  0.1875 0.53125 0  0.21875 0.53125 0  0.25 0.53125 0  0.28125 0.53125 0  0.3125 0.53125 0  0.34375 0.53125 0  0.375 0.53125 0  0.40625 0.53125 0  0.4375 0.53125 0  0.46875 0.53125 0  0.5 0.53125 0  0.53125 0.53125 0  0.5625 0.53125 0  0.59375 0.53125 0  0.625 0.53125 0  0.65625 0.53125 0  0.6875 0.53125 0  0.71875 0.53125 0  0.75 0.53125 0  0.78125 0.531
[...]
<PointData  Scalars="theta"> 
<DataArray  type="Float64"  Name="theta"  format="ascii">-1.2413154167134319e-01  0.0000000000000000e+00  -3.7550257609005966e-01  -7.3183165117647279e-03  -2.2826670725527465e-01  -3.6878966855586526e-01  0.0000000000000000e+00  -1.3888057860076009e-01  -1.1785995473157722e-01  0.0000000000000000e+00  0.0000000000000000e+00  -3.8057696383082137e-02  -3.3450519828747977e-01  0.0000000000000000e+00  -7.0127330227753054e-02  9.5344541935424168e-04  -7.7154836164549198e-02  -3.4793366195965714e-01  0.0000000000000000e+00  -2.6797692945662505e-01  -4.8121175919608308e-02  0.0000000000000000e+00  0.0000000000000000e+00  3.4927128343643392e-03  -4.1313038002243209e-02  0.0000000000000000e+00  -2.9651360785271436e-01  -2.8386459961638122e-01  -3.2091806265991069e-01  -4.3355947321638455e-01  0.0000000000000000e+00  -3.2091806265991041e-01  -1.1092887989502453e-01  -4.4573431736235847e-01  -8.4527069821890691e-02  -2.8272021932390057e-01  -2.8921038216570932e-01  -4.9833897367234647e-03  -1.5543765623458805e-01  -2.8404013120865118e-01  -8.6223793979362112e-03  -9.4570390460244402e-02  0.0000000000000000e+00  -2.1851267004512037e-01  -1.9872481460041238e-03  0.0000000000000000e+00  -2.2778049696903629e-01  -3.8029697898840076e-01  -5.4011751894253529e-02  6.4924632730734195e-04  -5.2538397056603778e-02  -2.6797692945662577e-01  -5.3616275963112781e-01  -1.8247823495827301e-01  0.0000000000000000e+00  -4.8301585152734213e-03  4.9228378464814277e-03  0.0000000000000000e+00  -2.8132012224707664e-02  -2.5621243183395703e-01  -2.2837343684121503e-01  -1.9329690511107361e-01  -2.1852837018153692e-01  -3.3392554119362672e-01  -5.0492778359681068e-01  -2.1852837018153676e-01  0.0000000000000000e+00  -3.6782395246561050e-01  -4.2907441117881341e-02  -2.3330325815842887e-01  -1.9693710266856529e-01  -2.5296570926505758e-03  -7.8902913545215891e-02  -1.9341643291968674e-01  -7.1152647356713897e-03  -4.8005608957204245e-02  -5.3647675676300599e-01  -1.8031861319412390e-01  -1.6398949758202343e-03  -2.7688337694564175e-01  -1.1562542369083229e-01  -3.1382447452105838e-01  -3.6779170403409070e-02  3.2956896079137482e-04  -2.6669422977564104e-02  -1.8247823495827348e-01  -4.4244631326437978e-01  -9.2629191314275272e-02  -1.2139429016691310e-01  -3.9858900850099311e-03  4.0623698995293179e-03  -5.7691457952804386e-03  -1.4280308788682942e-02  -2.1142879441202836e-01  -1.5551033348519955e-01  -9.8120940330693365e-02  -1.1092887989502462e-01  -2.2738578088813405e-01  -4.1667093117556647e-01  0.0000000000000000e+00  -1.3970051561392876e-02  -2.8329634105297680e-01  0.0000000000000000e+00  -1.7968911200311341e-01  -9.9968769229585086e-02  0.0000000000000000e+00  0.0000000000000000e+00  -9.8181614768134806e-02  -5.4801446499801836e-03  0.0000000000000000e+00  -4.4270542651101896e-01  -1.3888057860075972e-01  -1.2630396776688094e-03  -2.2848664352979889e-01  0.0000000000000000e+00  -2.4170618788889534e-01  -1.8669759779607373e-02  0.0000000000000000e+00  0.0000000000000000e+00  -9.2629191314275508e-02  -3.4077014511961901e-01  0.0000000000000000e+00  -1.0017565593822492e-01  -3.0699144777098899e-03  3.1288188842133738e-03  -4.7607508017950308e-03  0.0000000000000000e+00  -1.6284149917009477e-01  -7.8939805807751354e-02  0.0000000000000000e+00  0.0000000000000000e+00  -1.1542505880139177e-01  -2.0635378595410217e-01  -3.7890174679428246e-01  -1.1528211720082919e-02  -1.9290995083161294e-01  -9.1172192223541434e-02  -1.2235886151107972e-01  0.0000000000000000e+00  -8.6223793979362182e-03  -4.4690458590895571e-01  0.0000000000000000e+00  -3.7316911014396428e-03  -3.2419915198952975e-01  -3.4096971296776807e-01  -9.4570390460244166e-02  -8.6006378060457501e-04  -1.7597937724710758e-01  -5.4682544539855005e-01  -1.6458923771494807e-01  0.0000000000000000e+00  -4.8301585152733893e-03  -2.1903870952409984e-01  0.0000000000000000e+00  -2.3204659719771750e-01  -3.2442524494368813e-01  -7.7154836164548962e-02  -2.0904507582098497e-03  2.1305615698077574e-03  -3.6667086897764064e-03  -1.5290238602592165e-01  -1.1088652074180765e-01  0.0000000000000000e+00  -5.0492778359681112e-01  -5.2539355997528980e-01  -1.3315853007436942e-01  -1.7028499309864945e-01  -3.1267311641319551e-01  -8.8789764160040075e-03  -9.7924515469447651e-02  -7.5236109925444591e-02  -6.2111530147682781e-02  -3.8038036470911973e-01  -7.1152647356713932e-03  -3.6878966855586537e-01  -3.5915149682768560e-01  -1.8942726459408904e-03  -2.6753204504522254e-01  -2.3218249243600725e-01  -4.8005608957204127e-02  -4.3658364239613221e-04  -1.1983272669860932e-01  -4.5124525709729019e-01  -8.3548418758296744e-02  -2.5414744478659664e-02  -3.9858900850099051e-03  -1.8075270568548996e-01  -4.9595787616470621e-01  -1.1779097189628673e-01  -2.6771861897678628e-01  -5.2538397056603625e-02  -1.0611499133558069e-03  1.0815108733471341e-03  -2.4968363178624322e-03  -1.2617641895352638e-01  -5.6287966322756136e-02  -4.4662840707034046e-01  -4.1667093117556686e-01  0.0000000000000000e+00  -9.0673975505574364e-02  -1.3115272987989837e-01  -2.4081941709266855e-01  -6.0461172829834745e-03  0.0000000000000000e+00  -5.7946510862233069e-02  0.0000000000000000e+00  -3.1389328516493148e-01  -5.4801446499801862e-03  -2.8404013120865124e-01  -2.9637503317857727e-01  0.0000000000000000e+00  -2.0605196852376745e-01  -1.1785995473157732e-01  0.0000000000000000e+00  0.0000000000000000e+00  -6.0829219274369711e-02  -3.4754705177913636e-01  0.0000000000000000e+00  -2.0972474859826860e-02  -3.0699144777098699e-03  -1.3921491467011635e-01  -4.0926888319224919e-01  0.0000000000000000e+00  -2.0619566692022470e-01  -2.6669422977564028e-02  0.0000000000000000e+00  0.0000000000000000e+00  -1.2674384373599201e-03  -9.7180505992315661e-02  0.0000000000000000e+00  -3.6856176330367840e-01  -7.7346612895139296e-03  -3.5622716546935007e-01  -4.6027719559279798e-02  -8.9308130766968669e-02  -1.6398539330925194e-01  -3.0691164600648805e-03  -4.6633181519264777e-01  -3.9458534902879386e-02  -3.8038036470911957e-01  -2.4175918553492706e-01  -3.7316911014396454e-03  -1.9341643291968680e-01  -2.2826670725527456e-01  -5.4052766192883945e-03  -1.4031058420639408e-01  0.0000000000000000e+00  -1.2054964414227663e-01  -2.5414744478659657e-02  0.0000000000000000e+00  -2.3666131521920247e-01  -2.7688337694564169e-01  -1.6152905080780409e-02  -2.0904507582098363e-03  -9.4798055789281230e-02  -3.1521703885241814e-01  -4.9595787616470483e-01  -1.4040843527814501e-01  0.0000000000000000e+00  1.5001370704560391e-03  1.5898184060495694e-02  0.0000000000000000e+00  -6.6174827966673774e-02  -3.5931942359636437e-01  -2.0331740123703385e-01  -3.9262513718490068e-03  -2.9396184873967829e-01  0.0000000000000000e+00  -4.5334392524267471e-02  -8.3241896618864192e-02  0.0000000000000000e+00  -3.8482119222868616e-01  -2.0029852762087533e-02  -3.1389328516493131e-01  -1.6462532633244370e-01  -1.8942726459408915e-03  -9.8181614768134834e-02  -1.5543765623458797e-01  -4.4604826974996336e-03  -7.1224143256557571e-02  -4.9617355945630542e-01  -9.9478646470668966e-02  -2.0972474859826850e-02  -3.8029697898840104e-01  -1.2013348468183244e-01  -2.2848664352979883e-01  -1.0999281223820510e-02  -1.0611499133557998e-03  -4.8121175919608294e-02  -2.1464627195779892e-01  -4.0926888319224808e-01  -7.1273814197574697e-02  -4.6223374493272108e-02  1.2379265517641290e-03  1.3119323934404174e-02  -6.5001329433518842e-02  -3.3591517373652541e-02  -6.7877428707957960e-02  -1.3844848729801618e-01  0.0000000000000000e+00  -2.2640808353802225e-01  -1.0555631955305245e-01  0.0000000000000000e+00  0.0000000000000000e+00  -9.1172192223541199e-02  -2.9638753807971119e-01  0.0000000000000000e+00  -2.4175918553492692e-01  -8.3566737981162043e-02  0.0000000000000000e+00  0.0000000000000000e+00  -7.8902913545215864e-02  -3.4354435567920264e-03  0.0000000000000000e+00  -4.0944686697699856e-01  -7.6618002631783463e-02  -1.6152905080780402e-02  -3.1382447452105855e-01  0.0000000000000000e+00  -1.7597937724710752e-01  -5.5834304021724311e-03  0.0000000000000000e+00  0.0000000000000000e+00  -1.0895825792386371e-01  -3.1521703885241725e-01  0.0000000000000000e+00  -3.8143942793149699e-02  9.5344541935423485e-04  1.0104443831870718e-02  -5.3639679460263170e-02  -8.3073302676764715e-02  -4.6220969130624408e-02  -7.0278909810983642e-02  -1.7211542812633568e-02  -1.5417203095832446e-01  -8.7106020679496285e-02  -3.0414589062811132e-01  -3.0414589062811132e-01  -7.5236109925444411e-02  -2.0182436944135429e-01  -1.3970051561392900e-02  -1.6462532633244362e-01  0.0000000000000000e+00  -6.3019642266867681e-02  -5.0549022545510625e-01  0.0000000000000000e+00  -2.3393568909582194e-03  -4.2166031293253953e-01  -3.1535412115673317e-01  -5.2172841574928033e-02  -1.0999281223820507e-02  -2.4170618788889550e-01  -5.2630558396427762e-01  -1.1983272669860930e-01  0.0000000000000000e+00  -4.6223374493272115e-02  -3.2442524494368841e-01  0.0000000000000000e+00  -2.1464627195779831e-01  -2.1903870952409990e-01  -2.9378291854562345e-02  6.4924632730733729e-04  6.8805963237713076e-03  0.0000000000000000e+00  -4.2169483108570952e-02  -2.3462584418962856e-02  0.0000000000000000e+00  -1.4203119344358960e-02  -7.8260459688327094e-02  -6.7088662325473142e-02  -2.5098391409261639e-01  -2.5098391409261639e-01  -5.7946510862232931e-02  -1.0244963259942257e-01  -1.1528211720082941e-02  -8.3566737981162015e-02  -2.8272021932390051e-01  -5.2004373454431360e-02  -4.1713506323650934e-01  -2.5548656398182301e-01  -1.1874990847784549e-03  -3.4795786830711395e-01  -2.1473961781778073e-01  -2.6483860525933267e-02  -5.5834304021724302e-03  -1.6458923771494818e-01  -4.3431208358382956e-01  -6.0829219274369697e-02  -1.9872481460041311e-03  -3.8143942793149706e-02  -2.6771861897678650e-01  -5.3616275963112847e-01  -1.0895825792386341e-01  -1.8075270568549004e-01  -2.0005076013744180e-02  3.2956896079137249e-04  -1.0894623092847677e-02  -2.5068955773994051e-01  0.0000000000000000e+00  0.0000000000000000e+00  -2.7944347028639738e-01  -1.0939178144391890e-02  0.0000000000000000e+00  -4.5683860590862782e-02  -1.9330667306730273e-01  -1.9330667306730273e-01  -3.9458534902879289e-02  0.0000000000000000e+00  -8.8789764160040231e-03  0.0000000000000000e+00  -2.3330325815842884e-01  -4.0053532728460302e-02  -3.2127553506960288e-01  -2.1082980175667351e-01  0.0000000000000000e+00  -2.6799557307572341e-01  -1.0900564193941290e-01  0.0000000000000000e+00  0.0000000000000000e+00  -8.3548418758296786e-02  -3.3450519828747960e-01  0.0000000000000000e+00  -1.6398949758202404e-03  -2.9378291854562349e-02  -2.0619566692022490e-01  -4.4244631326438028e-01  0.0000000000000000e+00  -1.3921491467011640e-01  -1.0154931703265672e-02  -2.1233942219977062e-01  -7.4186669596879237e-03  -2.0687126922471002e-01  -1.0395141099843405e-01  -2.0464674014308218e-01  -2.3059925549301935e-01  -7.4490066131078954e-03  -3.7684340117635245e-01  -2.3189938589735677e-02  -1.3163170642526095e-01  -1.3163170642526095e-01  -2.0029852762087484e-02  -4.4573431736235897e-01  -6.0461172829834858e-03  -4.5503938310531389e-01  -1.7968911200311341e-01  -2.7274355187788212e-02  -2.1877179014496131e-01  -1.6238015774183229e-01  -4.5063608256528609e-02  -1.8249093028511776e-01  0.0000000000000000e+00  -4.5063608256528671e-02  -8.4981300043081492e-02  0.0000000000000000e+00  -2.2778049696903624e-01  -1.7323160841157900e-01  -1.2630396776688144e-03  -2.0005076013744183e-02  -1.4040843527814514e-01  -3.4077014511961939e-01  -4.2163097933507371e-01  -9.4798055789281271e-02  0.0000000000000000e+00  -1.7522439375985849e-01  -3.7658470406783744e-03  -1.5933131392748262e-01  -8.5781635760249178e-02  -1.6887632360027025e-01  -1.7760650140591575e-01  -3.7812479873265597e-03  -3.1097455116650891e-01  0.0000000000000000e+00  -6.6818590832370517e-02  -6.6818590832370517e-02  0.0000000000000000e+00  -3.6782395246561095e-01  -3.0691164600648866e-03  -3.7550257609005938e-01  -1.2235886151107972e-01  -1.3844946852104517e-02  -1.1105244418951107e-01  -1.1057237142412882e-01  -3.7186893303086839e-02  -9.2635635687541851e-02  -4.2166031293254025e-01  -3.7186893303086895e-02  -7.0127330227753054e-02  -4.6784949256069330e-01  -1.1562542369083226e-01  -1.4295227541594452e-01  -8.6006378060457837e-04  -1.0154931703265674e-02  -7.1273814197574767e-02  -2.3204659719771775e-01  -3.4793366195965625e-01  0.0000000000000000e+00  -9.7126067388959569e-02  -1.3495703388167760e-01  0.0000000000000000e+00  -1.0849626868262013e-01  -6.6068627063349955e-02  -1.3006777901694153e-01  -1.2094071291652492e-01  0.0000000000000000e+00  -2.3951118983829731e-01  -1.7211542812633578e-02  0.0000000000000000e+00  0.0000000000000000e+00  -1.9530675117214627e-01  -2.8329634105297707e-01  0.0000000000000000e+00  -2.8921038216570910e-01  -6.2111530147682774e-02  0.0000000000000000e+00  0.0000000000000000e+00  -5.6128498552503014e-02  -2.8641176675075021e-02  0.0000000000000000e+00  -3.4795786830711456e-01  -2.8641176675075063e-02  -5.4011751894253529e-02  -3.8607359319118212e-01  0.0000000000000000e+00  -1.1010119460428780e-01  -4.3658364239613384e-04  0.0000000000000000e+00  0.0000000000000000e+00  -1.1779097189628687e-01  -1.4527738027439294e-01  -8.6583699745931886e-02  -8.0149301058651867e-02  -9.1898662276143711e-02  -1.7848050812277721e-02  -5.5074631947122525e-02  -4.4989270072922069e-02  -8.8569336129347198e-02  -6.1391652746922487e-02  -1.0555631955305231e-01  -1.6309455915876730e-01  -1.4203119344358970e-02  -3.7890174679428201e-01  -2.0635378595410245e-01  -1.6116888101517982e-01  -1.9290995083161314e-01  -1.1514532106163414e-02  -1.9693710266856509e-01  0.0000000000000000e+00  -1.5155577567063389e-01  -5.2605488242572751e-01  0.0000000000000000e+00  -1.9503139234385836e-02  -4.9617355945630470e-01  -2.6799557307572386e-01  -1.9503139234385864e-02  -3.6779170403409070e-02  -2.9735213162460683e-01  -4.6784949256069347e-01  -7.4973139288245061e-02  0.0000000000000000e+00  -1.2139429016691346e-01  -4.2163097933507487e-01  -8.7787567541145698e-03  -1.1988419588733543e-01  -7.1449644820041888e-02  -6.1730628404338184e-02  -4.6649392303961222e-02  -1.4728371448775148e-02  0.0000000000000000e+00  -2.2837352112854613e-02  -4.4959367251550156e-02  0.0000000000000000e+00  -8.7106020679496160e-02  -8.2789693390498909e-02  -1.0939178144391899e-02  -3.1267311641319512e-01  -1.7028499309864970e-01  -1.2413154167134299e-01  -9.7924515469447748e-02  -9.5018950641803639e-03  -9.9968769229585017e-02  -1.7680090855942784e-01  -1.2506518402271807e-01  -4.3410520242793288e-01  -1.5155577567063444e-01  -9.9001396839682107e-03  -4.0944686697699795e-01  -1.8249093028511809e-01  -9.9001396839682228e-03  -1.8669759779607373e-02  -2.0248120705749392e-01  -3.8607359319118228e-01  -3.8057696383082026e-02  1.5001370704560498e-03  -1.0017565593822521e-01  0.0000000000000000e+00  -5.9778729492388442e-03  -9.2334264305791183e-02  -5.5030192599937050e-02  -4.2035320491691605e-02  0.0000000000000000e+00  -1.1343724934545243e-02  -2.7130817500149462e-01  0.0000000000000000e+00  0.0000000000000000e+00  -2.0464674014308218e-01  -6.7088662325473031e-02  0.0000000000000000e+00  -7.4490066131079023e-03  -2.4081941709266830e-01  -1.3115272987989857e-01  -8.4527069821890566e-02  0.0000000000000000e+00  -7.3183165117647149e-03  0.0000000000000000e+00  -1.4589769387886836e-01  -9.6324637885200792e-02  -3.3434585935888222e-01  -1.2506518402271849e-01  0.0000000000000000e+00  -3.1535412115673273e-01  -9.2635635687542017e-02  0.0000000000000000e+00  0.0000000000000000e+00  -1.0278305503318144e-01  -2.9735213162460700e-01  0.0000000000000000e+00  1.2379265517641377e-03  -5.9778729492388546e-03  -1.1311425562268744e-01  -3.0344744248216524e-03  -6.2874791538420988e-02  -3.7472675112040596e-02  -2.1337874868595383e-02  -1.7189979508467856e-01  -7.7244817608189513e-03  -2.2388593693169542e-01  -1.7848050812277687e-02  -2.7944347028639727e-01  -1.6887632360027025e-01  -4.5683860590862706e-02  -3.5622716546935002e-01  -3.7812479873265631e-03  -1.6398539330925177e-01  -8.9308130766968807e-02  -4.2907441117881279e-02  -3.8705387503223332e-01  -4.9833897367234552e-03  -4.9541970493375365e-01  -1.1236974255453099e-01  -6.5592026671576917e-02  -2.2767199551516271e-01  -9.6324637885201125e-02  -1.2054964414227660e-01  -2.1473961781778045e-01  0.0000000000000000e+00  -5.4052766192883945e-03  -1.7323160841157950e-01  0.0000000000000000e+00  -2.0248120705749398e-01  -8.4981300043081492e-02  -3.5662773473079758e-02  -3.0344744248216576e-03  -9.3342897243244363e-02  0.0000000000000000e+00  -3.1916360302308641e-02  -1.9021795080408424e-02  0.0000000000000000e+00  -1.4185325112554270e-01  -3.9210840623822539e-03  -1.7243593387762537e-01  -1.4728371448775120e-02  -2.3059925549301927e-01  -1.3006777901694153e-01  -2.3189938589735639e-02  -2.9396184873967829e-01  0.0000000000000000e+00  -8.3241896618864109e-02  -4.5334392524267540e-02  0.0000000000000000e+00  -3.1940032567819793e-01  -2.5296570926505715e-03  -4.0882477947045448e-01  -7.6517901468772936e-02  -3.3295677090705487e-02  -1.1557034642679020e-01  -6.5592026671577139e-02  -9.9478646470668938e-02  -1.0900564193941276e-01  -3.2419915198953025e-01  -4.4604826974996336e-03  -1.4295227541594493e-01  -5.2630558396427785e-01  -1.0278305503318147e-01  -3.5662773473079716e-02  -2.4284478407450565e-02  0.0000000000000000e+00  -7.1892276386670215e-02  -1.5778698785409263e-02  0.0000000000000000e+00  0.0000000000000000e+00  -1.7189979508467837e-01  -1.0925473107707015e-01  0.0000000000000000e+00  -1.1741982759923979e-01  -1.1343724934545222e-02  -1.7760650140591566e-01  -8.8569336129347198e-02  0.0000000000000000e+00  -2.2640808353802222e-01  -1.5893930660908741e-02  0.0000000000000000e+00  0.0000000000000000e+00  -2.9915447627991665e-01  -2.4600068317797341e-01  0.0000000000000000e+00  -3.1487499217876053e-01  -3.8841845087654356e-02  0.0000000000000000e+00  0.0000000000000000e+00  -3.3295677090705605e-02  -7.6618002631783436e-02  0.0000000000000000e+00  -2.6753204504522299e-01  -3.4354435567920255e-03  -1.1010119460428811e-01  -4.3431208358382967e-01  -3.6334259283505028e-03  -2.4284478407450540e-02  -1.2327232323819350e-02  -7.2732294509241360e-02  -4.8954869841865728e-02  -1.3020723614815129e-02  -1.6587837858240617e-01  -1.5778698785409280e-02  -1.4185325112554256e-01  -7.4396742018836726e-02  -1.0395141099843400e-01  -5.9604388859122365e-02  -7.7244817608189374e-03  -1.2094071291652488e-01  -4.4959367251550156e-02  -2.0950968262796882e-01  -1.5417203095832446e-01  -1.3115813990954572e-02  -4.1933340042077277e-01  -1.0027905804923086e-01  -2.4686495424942803e-01  -1.6751356378278009e-01  -7.8589846361923010e-02  -2.1441335611161413e-01  0.0000000000000000e+00  -2.5548656398182279e-01  -5.0549022545510724e-01  0.0000000000000000e+00  -5.2172841574928019e-02  -5.3647675676300555e-01  -2.0605196852376778e-01  -2.3393568909582190e-03  -7.4973139288245283e-02  0.0000000000000000e+00  -1.8443914997335867e-03  -1.2327232323819336e-02  0.0000000000000000e+00  -6.0019341110174061e-02  -2.4850360950633678e-02  -1.0028502312622208e-02  -1.3688432427599312e-01  -1.3020723614815143e-02  -1.0925473107707001e-01  -3.7765106897255069e-02  -8.5781635760249150e-02  0.0000000000000000e+00  -3.9210840623822470e-03  -6.1391652746922466e-02  0.0000000000000000e+00  -1.7288926731074927e-01  -7.8260459688327094e-02  -1.0101740489334406e-02  -3.4603767925327472e-01  -8.2751177202294926e-02  -1.9013426886497309e-01  -8.5032858581295209e-02  -6.4853045382654601e-02  -1.0884002570575119e-01  -7.8589846361923052e-02  -2.1082980175667329e-01  -4.1713506323651023e-01  -6.3019642266867737e-02  -2.6483860525933264e-02  -4.4270542651101863e-01  -1.4031058420639433e-01  -1.1874990847784549e-03  -5.3358381283669359e-03  -3.7373846797419778e-02  0.0000000000000000e+00  0.0000000000000000e+00  -1.1318745979309692e-02  -4.6226624489639594e-02  0.0000000000000000e+00  -6.8288841319023401e-03  -1.0542768613885639e-01  -1.0028502312622218e-02  -7.439674201883662