<?xml version="1.0"?>
<VTKFile type="UnstructuredGrid"  version="0.1"  >
<UnstructuredGrid>
<Piece  NumberOfPoints="1089" NumberOfCells="2048">
<Points>
<DataArray  type="Float64"  NumberOfComponents="3"  format="ascii">0 0 0  0.03125 0 0  0.0625 0 0  0.09375 0 0  0.125 0 0  0.15625 0 0  0.1875 0 0  0.21875 0 0  0.25 0 0  0.28125 0 0  0.3125 0 0  0.34375 0 0  0.375 0 0  0.40625 0 0  0.4375 0 0  0.46875 0 0  0.5 0 0  0.53125 0 0  0.5625 0 0  0.59375 0 0  0.625 0 0  0.65625 0 0  0.6875 0 0  0.71875 0 0  0.75 0 0  0.78125 0 0  0.8125 0 0  0.84375 0 0  0.875 0 0  0.90625 0 0  0.9375 0 0  0.96875 0 0  1 0 0  0 0.03125 0  0.03125 0.03125 0  0.0625 0.03125 0  0.09375 0.03125 0  0.125 0.03125 0  0.15625 0.03125 0  0.1875 0.03125 0  0.21875 0.03125 0  0.25 0.03125 0  0.28125 0.03125 0  0.3125 0.03125 0  0.34375 0.03125 0  0.375 0.03125 0  0.40625 0.03125 0  0.4375 0.03125 0  0.46875 0.03125 0  0.5 0.03125 0  0.53125 0.03125 0  0.5625 0.03125 0  0.59375 0.03125 0  0.625 0.03125 0  0.65625 0.03125 0  0.6875 0.03125 0  0.71875 0.03125 0  0.75 0.03125 0  0.78125 0.03125 0  0.8125 0.03125 0  0.84375 0.03125 0  0.875 0.03125 0  0.90625 0.03125 0  0.9375 0.03125 0  0.96875 0.03125 0  1 0.03125 0  0 0.0625 0  0.03125 0.0625 0  0.0625 0.0625 0  0.09375 0.0625 0  0.125 0.0625 0  0.15625 0.0625 0  0.1875 0.0625 0  0.21875 0.0625 0  0.25 0.0625 0  0.28125 0.0625 0  0.3125 0.0625 0  0.34375 0.0625 0  0.375 0.0625 0  0.40625 0.0625 0  0.4375 0.0625 0  0.46875 0.0625 0  0.5 0.0625 0  0.53125 0.0625 0  0.5625 0.0625 0  0.59375 0.0625 0  0.625 0.0625 0  0.65625 0.0625 0  0.6875 0.0625 0  0.71875 0.0625 0  0.75 0.0625 0  0.78125 0.0625 0  0.8125 0.0625 0  0.84375 0.0625 0  0.875 0.0625 0  0.90625 0.0625 0  0.9375 0.0625 0  0.96875 0.0625 0  1 0.0625 0  0 0.09375 0  0.03125 0.09375 0  0.0625 0.09375 0  0.09375 0.09375 0  0.125 0.09375 0  0.15625 0.09375 0  0.1875 0.09375 0  0.21875 0.09375 0  0.25 0.09375 0  0.28125 0.09375 0  0.3125 0.09375 0  0.34375 0.09375 0  0.375 0.09375 0  0.40625 0.09375 0  0.4375 0.09375 0  0.46875 0.09375 0  0.5 0.09375 0  0.53125 0.09375 0  0.5625 0.09375 0  0.59375 0.09375 0  0.625 0.09375 0  0.65625 0.09375 0  0.6875 0.09375 0  0.71875 0.09375 0  0.75 0.09375 0  0.78125 0.09375 0  0.8125 0.09375 0  0.84375 0.09375 0  0.875 0.09375 0  0.90625 0.09375 0  0.9375 0.09375 0  0.96875 0.09375 0  1 0.09375 0  0 0.125 0  0.03125 0.125 0  0.0625 0.125 0  0.09375 0.125 0  0.125 0.125 0  0.15625 0.125 0  0.1875 0.125 0  0.21875 0.125 0  0.25 0.125 0  0.28125 0.125 0  0.3125 0.125 0  0.34375 0.125 0  0.375 0.125 0  0.40625 0.125 0  0.4375 0.125 0  0.46875 0.125 0  0.5 0.125 0  0.53125 0.125 0  0.5625 0.125 0  0.59375 0.125 0  0.625 0.125 0  0.65625 0.125 0  0.6875 0.125 0  0.71875 0.125 0  0.75 0.125 0  0.78125 0.125 0  0.8125 0.125 0  0.84375 0.125 0  0.875 0.125 0  0.90625 0.125 0  0.9375 0.125 0  0.96875 0.125 0  1 0.125 0  0 0.15625 0  0.03125 0.15625 0  0.0625 0.15625 0  0.09375 0.15625 0  0.125 0.15625 0  0.15625 0.15625 0  0.1875 0.15625 0  0.21875 0.15625 0  0.25 0.15625 0  0.28125 0.15625 0  0.3125 0.15625 0  0.34375 0.15625 0  0.375 0.15625 0  0.40625 0.15625 0  0.4375 0.15625 0  0.46875 0.15625 0  0.5 0.15625 0  0.53125 0.15625 0  0.5625 0.15625 0  0.59375 0.15625 0  0.625 0.15625 0  0.65625 0.15625 0  0.6875 0.15625 0  0.71875 0.15625 0  0.75 0.15625 0  0.78125 0.15625 0  0.8125 0.15625 0  0.84375 0.15625 0  0.875 0.15625 0  0.90625 0.15625 0  0.9375 0.15625 0  0.96875 0.15625 0  1 0.15625 0  0 0.1875 0  0.03125 0.1875 0  0.0625 0.1875 0  0.09375 0.1875 0  0.125 0.1875 0  0.15625 0.1875 0  0.1875 0.1875 0  0.21875 0.1875 0  0.25 0.1875 0  0.28125 0.1875 0  0.3125 0.1875 0  0.34375 0.1875 0  0.375 0.1875 0  0.40625 0.1875 0  0.4375 0.1875 0  0.46875 0.1875 0  0.5 0.1875 0  0.53125 0.1875 0  0.5625 0.1875 0  0.59375 0.1875 0  0.625 0.1875 0  0.65625 0.1875 0  0.6875 0.1875 0  0.71875 0.1875 0  0.75 0.1875 0  0.78125 0.1875 0  0.8125 0.1875 0  0.84375 0.1875 0  0.875 0.1875 0  0.90625 0.1875 0  0.9375 0.1875 0  0.96875 0.1875 0  1 0.1875 0  0 0.21875 0  0.03125 0.21875 0  0.0625 0.21875 0  0.09375 0.21875 0  0.125 0.21875 0  0.15625 0.21875 0  0.1875 0.21875 0  0.21875 0.21875 0  0.25 0.21875 0  0.28125 0.21875 0  0.3125 0.21875 0  0.34375 0.21875 0  0.375 0.21875 0  0.40625 0.21875 0  0.4375 0.21875 0  0.46875 0.21875 0  0.5 0.21875 0  0.53125 0.21875 0  0.5625 0.21875 0  0.59375 0.21875 0  0.625 0.21875 0  0.65625 0.21875 0  0.6875 0.21875 0  0.71875 0.21875 0  0.75 0.21875 0  0.78125 0.21875 0  0.8125 0.21875 0  0.84375 0.21875 0  0.875 0.21875 0  0.90625 0.21875 0  0.9375 0.21875 0  0.96875 0.21875 0  1 0.21875 0  0 0.25 0  0.03125 0.25 0  0.0625 0.25 0  0.09375 0.25 0  0.125 0.25 0  0.15625 0.25 0  0.1875 0.25 0  0.21875 0.25 0  0.25 0.25 0  0.28125 0.25 0  0.3125 0.25 0  0.34375 0.25 0  0.375 0.25 0  0.40625 0.25 0  0.4375 0.25 0  0.46875 0.25 0  0.5 0.25 0  0.53125 0.25 0  0.5625 0.25 0  0.59375 0.25 0  0.625 0.25 0  0.65625 0.25 0  0.6875 0.25 0  0.71875 0.25 0  0.75 0.25 0  0.78125 0.25 0  0.8125 0.25 0  0.84375 0.25 0  0.875 0.25 0  0.90625 0.25 0  0.9375 0.25 0  0.96875 0.25 0  1 0.25 0  0 0.28125 0  0.03125 0.28125 0  0.0625 0.28125 0  0.09375 0.28125 0  0.125 0.28125 0  0.15625 0.28125 0  0.1875 0.28125 0  0.21875 0.28125 0  0.25 0.28125 0  0.28125 0.28125 0  0.3125 0.28125 0  0.34375 0.28125 0  0.375 0.28125 0  0.40625 0.28125 0  0.4375 0.28125 0  0.46875 0.28125 0  0.5 0.28125 0  0.53125 0.28125 0  0.5625 0.28125 0  0.59375 0.28125 0  0.625 0.28125 0  0.65625 0.28125 0  0.6875 0.28125 0  0.71875 0.28125 0  0.75 0.28125 0  0.78125 0.28125 0  0.8125 0.28125 0  0.84375 0.28125 0  0.875 0.28125 0  0.90625 0.28125 0  0.9375 0.28125 0  0.96875 0.28125 0  1 0.28125 0  0 0.3125 0  0.03125 0.3125 0  0.0625 0.3125 0  0.09375 0.3125 0  0.125 0.3125 0  0.15625 0.3125 0  0.1875 0.3125 0  0.21875 0.3125 0  0.25 0.3125 0  0.28125 0.3125 0  0.3125 0.3125 0  0.34375 0.3125 0  0.375 0.3125 0  0.40625 0.3125 0  0.4375 0.3125 0  0.46875 0.3125 0  0.5 0.3125 0  0.53125 0.3125 0  0.5625 0.3125 0  0.59375 0.3125 0  0.625 0.3125 0  0.65625 0.3125 0  0.6875 0.3125 0  0.71875 0.3125 0  0.75 0.3125 0  0.78125 0.3125 0  0.8125 0.3125 0  0.84375 0.3125 0  0.875 0.3125 0  0.90625 0.3125 0  0.9375 0.3125 0  0.96875 0.3125 0  1 0.3125 0  0 0.34375 0  0.03125 0.34375 0  0.0625 0.34375 0  0.09375 0.34375 0  0.125 0.34375 0  0.15625 0.34375 0  0.1875 0.34375 0  0.21875 0.34375 0  0.25 0.34375 0  0.28125 0.34375 0  0.3125 0.34375 0  0.34375 0.34375 0  0.375 0.34375 0  0.40625 0.34375 0  0.4375 0.34375 0  0.46875 0.34375 0  0.5 0.34375 0  0.53125 0.34375 0  0.5625 0.34375 0  0.59375 0.34375 0  0.625 0.34375 0  0.65625 0.34375 0  0.6875 0.34375 0  0.71875 0.34375 0  0.75 0.34375 0  0.78125 0.34375 0  0.8125 0.34375 0  0.84375 0.34375 0  0.875 0.34375 0  0.90625 0.34375 0  0.9375 0.34375 0  0.96875 0.34375 0  1 0.34375 0  0 0.375 0  0.03125 0.375 0  0.0625 0.375 0  0.09375 0.375 0  0.125 0.375 0  0.15625 0.375 0  0.1875 0.375 0  0.21875 0.375 0  0.25 0.375 0  0.28125 0.375 0  0.3125 0.375 0  0.34375 0.375 0  0.375 0.375 0  0.40625 0.375 0  0.4375 0.375 0  0.46875 0.375 0  0.5 0.375 0  0.53125 0.375 0  0.5625 0.375 0  0.59375 0.375 0  0.625 0.375 0  0.65625 0.375 0  0.6875 0.375 0  0.71875 0.375 0  0.75 0.375 0  0.78125 0.375 0  0.8125 0.375 0  0.84375 0.375 0  0.875 0.375 0  0.90625 0.375 0  0.9375 0.375 0  0.96875 0.375 0  1 0.375 0  0 0.40625 0  0.03125 0.40625 0  0.0625 0.40625 0  0.09375 0.40625 0  0.125 0.40625 0  0.15625 0.40625 0  0.1875 0.40625 0  0.21875 0.40625 0  0.25 0.40625 0  0.28125 0.40625 0  0.3125 0.40625 0  0.34375 0.40625 0  0.375 0.40625 0  0.40625 0.40625 0  0.4375 0.40625 0  0.46875 0.40625 0  0.5 0.40625 0  0.53125 0.40625 0  0.5625 0.40625 0  0.59375 0.40625 0  0.625 0.40625 0  0.65625 0.40625 0  0.6875 0.40625 0  0.71875 0.40625 0  0.75 0.40625 0  0.78125 0.40625 0  0.8125 0.40625 0  0.84375 0.40625 0  0.875 0.40625 0  0.90625 0.40625 0  0.9375 0.40625 0  0.96875 0.40625 0  1 0.40625 0  0 0.4375 0  0.03125 0.4375 0  0.0625 0.4375 0  0.09375 0.4375 0  0.125 0.4375 0  0.15625 0.4375 0  0.1875 0.4375 0  0.21875 0.4375 0  0.25 0.4375 0  0.28125 0.4375 0  0.3125 0.4375 0  0.34375 0.4375 0  0.375 0.4375 0  0.40625 0.4375 0  0.4375 0.4375 0  0.46875 0.4375 0  0.5 0.4375 0  0.53125 0.4375 0  0.5625 0.4375 0  0.59375 0.4375 0  0.625 0.4375 0  0.65625 0.4375 0  0.6875 0.4375 0  0.71875 0.4375 0  0.75 0.4375 0  0.78125 0.4375 0  0.8125 0.4375 0  0.84375 0.4375 0  0.875 0.4375 0  0.90625 0.4375 0  0.9375 0.4375 0  0.96875 0.4375 0  1 0.4375 0  0 0.46875 0  0.03125 0.46875 0  0.0625 0.46875 0  0.09375 0.46875 0  0.125 0.46875 0  0.15625 0.46875 0  0.1875 0.46875 0  0.21875 0.46875 0  0.25 0.46875 0  0.28125 0.46875 0  0.3125 0.46875 0  0.34375 0.46875 0  0.375 0.46875 0  0.40625 0.46875 0  0.4375 0.46875 0  0.46875 0.46875 0  0.5 0.46875 0  0.53125 0.46875 0  0.5625 0.46875 0  0.59375 0.46875 0  0.625 0.46875 0  0.65625 0.46875 0  0.6875 0.46875 0  0.71875 0.46875 0  0.75 0.46875 0  0.78125 0.46875 0  0.8125 0.46875 0  0.84375 0.46875 0  0.875 0.46875 0  0.90625 0.46875 0  0.9375 0.46875 0  0.96875 0.46875 0  1 0.46875 0  0 0.5 0  0.03125 0.5 0  0.0625 0.5 0  0.09375 0.5 0  0.125 0.5 0  0.15625 0.5 0  0.1875 0.5 0  0.21875 0.5 0  0.25 0.5 0  0.28125 0.5 0  0.3125 0.5 0  0.34375 0.5 0  0.375 0.5 0  0.40625 0.5 0  0.4375 0.5 0  0.46875 0.5 0  0.5 0.5 0  0.53125 0.5 0  0.5625 0.5 0  0.59375 0.5 0  0.625 0.5 0  0.65625 0.5 0  0.6875 0.5 0  0.71875 0.5 0  0.75 0.5 0  0.78125 0.5 0  0.8125 0.5 0  0.84375 0.5 0  0.875 0.5 0  0.90625 0.5 0  0.9375 0.5 0  0.96875 0.5 0  1 0.5 0  0 0.53125 0  0.03125 0.53125 0  0.0625 0.53125 0  0.09375 0.53125 0  0.125 0.53125 0  0.15625 0.53125 0  0.1875 0.53125 0  0.21875 0.53125 0  0.25 0.53125 0  0.28125 0.53125 0  0.3125 0.53125 0  0.34375 0.53125 0  0.375 0.53125 0  0.40625 0.53125 0  0.4375 0.53125 0  0.46875 0.53125 0  0.5 0.53125 0  0.53125 0.53125 0  0.5625 0.53125 0  0.59375 0.53125 0  0.625 0.53125 0  0.65625 0.53125 0  0.6875 0.53125 0  0.71875 0.53125 0  0.75 0.53125 0  0.78125 0.531
[...]
<PointData  Scalars="phi"> 
<DataArray  type="Float64"  Name="phi"  format="ascii">0.0000000000000000e+00  0.0000000000000000e+00  0.0000000000000000e+00  0.0000000000000000e+00  0.0000000000000000e+00  0.0000000000000000e+00  0.0000000000000000e+00  0.0000000000000000e+00  0.0000000000000000e+00  0.0000000000000000e+00  0.0000000000000000e+00  0.0000000000000000e+00  0.0000000000000000e+00  0.0000000000000000e+00  0.0000000000000000e+00  0.0000000000000000e+00  0.0000000000000000e+00  0.0000000000000000e+00  0.0000000000000000e+00  0.0000000000000000e+00  0.0000000000000000e+00  0.0000000000000000e+00  0.0000000000000000e+00  0.0000000000000000e+00  0.0000000000000000e+00  0.0000000000000000e+00  0.0000000000000000e+00  0.0000000000000000e+00  0.0000000000000000e+00  0.0000000000000000e+00  0.0000000000000000e+00  0.0000000000000000e+00  0.0000000000000000e+00  0.0000000000000000e+00  5.0384838382957815e-08  7.9594630193053473e-08  9.6794572855998655e-08  1.0555625708786307e-07  1.0791229031373652e-07  1.0521648561114173e-07  9.8502937244825505e-08  8.8647950632679366e-08  7.6445052776977576e-08  6.2637571976761192e-08  4.7928808418751381e-08  3.2979844445777014e-08  1.8400608953174846e-08  4.7376641204662678e-09  -7.5389521398614286e-09  -1.8048157244765170e-08  -2.6508290396254594e-08  -3.2744692907392132e-08  -3.6693735948638615e-08  -3.8402848005550270e-08  -3.8026286325263356e-08  -3.5816562233621304e-08  -3.2111563316837537e-08  -2.7317503815001765e-08  -2.1887857628979192e-08  -1.6298351158050426e-08  -1.1017851777184534e-08  -6.4744537415175081e-09  -3.0149534593867497e-09  -8.5353314952535200e-10  -3.9391602630082044e-19  0.0000000000000000e+00  0.0000000000000000e+00  7.9594630193052626e-08  1.2498710809404427e-07  1.5127614865137090e-07  1.6340756697198441e-07  1.6463727747527410e-07  1.5732411979912063e-07  1.4334517864131083e-07  1.2431149375238283e-07  1.0167682674880573e-07  7.6787172378289467e-08  5.0896433453991757e-08  2.5162626457711132e-08  6.3332609285643134e-10  -2.1773984482948555e-08  -4.1292734953148427e-08  -5.7326422854102061e-08  -6.9464006928100791e-08  -7.7490002728746962e-08  -8.1388200453880221e-08  -8.1338315651748378e-08  -7.7705222944614324e-08  -7.1020710998520334e-08  -6.1957923016469222e-08  -5.1298790693757142e-08  -3.9894798014190988e-08  -2.8621271372100944e-08  -1.8324993710497193e-08  -9.7641182017059262e-09  -3.5377957237801367e-09  -1.5605550661956809e-18  8.5353314795742784e-10  0.0000000000000000e+00  0.0000000000000000e+00  9.6794572855996961e-08  1.5127614865137259e-07  1.8363175563288896e-07  1.9864354681170012e-07  1.9990447250659146e-07  1.9024633202726878e-07  1.7203709793671299e-07  1.4736272816232281e-07  1.1812762052818053e-07  8.6101561447862697e-08  5.2932526063501626e-08  2.0138395593070945e-08  -1.0913439695574474e-08  -3.9032226456838512e-08  -6.3231070458234589e-08  -8.2751724400009698e-08  -9.7084288746212373e-08  -1.0597985552943435e-07  -1.0945470178886748e-07  -1.0778514379266365e-07  -1.0149260690822459e-07  -9.1318845682852490e-08  -7.8191550200175483e-08  -6.3180773869271068e-08  -4.7446678398717769e-08  -3.2178960676982401e-08  -1.8527923527908921e-08  -7.5263547208825547e-09  -3.4523989522453174e-18  3.5377957191384756e-09  3.0149534570555827e-09  0.0000000000000000e+00  0.0000000000000000e+00  1.0555625708785799e-07  1.6340756697198102e-07  1.9864354681168995e-07  2.1537458754149706e-07  2.1701275789110598e-07  2.0645413239839825e-07  1.8624549355153425e-07  1.5870236508192827e-07  1.2597846557150865e-07  9.0096359997584815e-08  5.2950101404484811e-08  1.6289180964325291e-08  -1.8308707472696720e-08  -4.9470142334892705e-08  -7.6058980954544152e-08  -9.7206174088932795e-08  -1.1233347524182045e-07  -1.2116882962753887e-07  -1.2375184982562812e-07  -1.2042834908576375e-07  -1.1183341155778274e-07  -9.8862923103833840e-08  -8.2633849741819735e-08  -6.4433808334504744e-08  -4.5660592970038678e-08  -2.7752258294436493e-08  -1.2108064886192642e-08  -5.9978399767613321e-18  7.5263547117822444e-09  9.7641181955897131e-09  6.4744537384462726e-09  0.0000000000000000e+00  0.0000000000000000e+00  1.0791229031373313e-07  1.6463727747524699e-07  1.9990447250655758e-07  2.1701275789109243e-07  2.1892989532499749e-07  2.0834632128443025e-07  1.8774744748619159e-07  1.5947197372099338e-07  1.2574545051261400e-07  8.8689190576491956e-08  5.0308983367877680e-08  1.2469279705101073e-08  -2.3141586871807513e-08  -5.5050144116112229e-08  -8.2036186013675341e-08  -1.0316723198426452e-07  -1.1782610387736127e-07  -1.2572932376571702e-07  -1.2693464589054736e-07  -1.2183661515370830e-07  -1.1114958406115404e-07  -9.5878105839016512e-08  -7.7275034199519405e-08  -5.6787976187115121e-08  -3.5994936466596151e-08  -1.6530030194266007e-08  -9.1011927641361816e-18  1.2108064871416788e-08  1.8527923516701193e-08  1.8324993702965800e-08  1.1017851773403485e-08  0.0000000000000000e+00  0.0000000000000000e+00  1.0521648561112987e-07  1.5732411979908336e-07  1.9024633202720779e-07  2.0645413239835081e-07  2.0834632128441670e-07  1.9824212585158182e-07  1.7839497561137816e-07  1.5100591260506038e-07  1.1822582025900494e-07  8.2143220125026404e-08  4.4758684129004417e-08  7.9489732530621526e-09  -2.6575214158669567e-08  -5.7313909800405286e-08  -8.3021233884136522e-08  -1.0274413860382491e-07  -1.1585373311836757e-07  -1.2206693134883323e-07  -1.2145672669737023e-07  -1.1444996041325476e-07  -1.0181199501545752e-07  -8.4618211699952553e-08  -6.4212699992687635e-08  -4.2154876874088446e-08  -2.0155039332506483e-08  -1.2648058557004245e-17  1.6530030172809815e-08  2.7752258277021496e-08  3.2178960663774617e-08  2.8621271363227003e-08  1.6298351153595668e-08  0.0000000000000000e+00  0.0000000000000000e+00  9.8502937244810258e-08  1.4334517864128033e-07  1.7203709793665200e-07  1.8624549355143939e-07  1.8774744748613738e-07  1.7839497561135105e-07  1.6009501377870362e-07  1.3479258081197144e-07  1.0444930293010456e-07  7.1013825311616119e-08  3.6383808159852807e-08  2.3611584159762868e-09  -2.9396819315670214e-08  -5.7427249138333747e-08  -8.0509348564694778e-08  -9.7706994547835176e-08  -1.0840360351587624e-07  -1.1232718028215651e-07  -1.0956388883874818e-07  -1.0055902448967562e-07  -8.6104797662368165e-08  -6.7314852508785014e-08  -4.5585916172151170e-08  -2.2547386606376428e-08  -1.6504906322883926e-17  2.0155039303610377e-08  3.5994936442088100e-08  4.5660592950150345e-08  4.7446678383635500e-08  3.9894798004058356e-08  2.1887857623892124e-08  0.0000000000000000e+00  0.0000000000000000e+00  8.8647950632662426e-08  1.2431149375234218e-07  1.4736272816226860e-07  1.5870236508186728e-07  1.5947197372096628e-07  1.5100591260508748e-07  1.3479258081201210e-07  1.1243865784792140e-07  8.5631429092277518e-08  5.6096538404997072e-08  2.5550573297267458e-08  -4.3505807251578189e-09  -3.2065701768585909e-08  -5.6222070046556532e-08  -7.5666558559909104e-08  -8.9511407965636334e-08  -9.7172345384575456e-08  -9.8397054222276151e-08  -9.3282430684722402e-08  -8.2279542010680820e-08  -6.6185705250011538e-08  -4.6123609874707057e-08  -2.3507890705256042e-08  -2.0527371162876818e-17  2.2547386569566071e-08  4.2154876841868160e-08  5.6787976159788144e-08  6.4433808312332810e-08  6.3180773852460005e-08  5.1298790682462804e-08  2.7317503809332573e-08  0.0000000000000000e+00  0.0000000000000000e+00  7.6445052776970800e-08  1.0167682674877863e-07  1.1812762052813310e-07  1.2597846557144089e-07  1.2574545051254624e-07  1.1822582025900494e-07  1.0444930293007746e-07  8.5631429092236861e-08  6.3125936594190580e-08  3.8374475466750914e-08  1.2853113331089908e-08  -1.1983743888755306e-08  -3.4760582321861954e-08  -5.4237213586701225e-08  -6.9362214981873887e-08  -7.9321147670451965e-08  -8.3577460494155113e-08  -8.1904252224782829e-08  -7.4405425412046129e-08  -6.1525191700365561e-08  -4.4045355953523847e-08  -2.3070291484339955e-08  -2.4564466241346537e-17  2.3507890660348049e-08  4.5585916131888306e-08  6.4212699957447676e-08  7.7275034169634388e-08  8.2633849717574263e-08  7.8191550181793174e-08  6.1957923004119482e-08  3.2111563310638950e-08  0.0000000000000000e+00  0.0000000000000000e+00  6.2637571976737475e-08  7.6787172378242033e-08  8.6101561447801710e-08  9.0096359997503500e-08  8.8689190576383536e-08  8.2143220124958642e-08  7.1013825311575462e-08  5.6096538405010624e-08  3.8374475466750914e-08  1.8964055071801181e-08  -9.4135714568993785e-10  -2.0129434370546283e-08  -3.7427399690264751e-08  -5.1759491384703506e-08  -6.2201544417115132e-08  -6.8030763495131332e-08  -6.8768830698066842e-08  -6.4216685162256381e-08  -5.4479607444602829e-08  -3.9981612402477276e-08  -2.1468578802843102e-08  -2.8463579522538979e-17  2.3070291431459688e-08  4.6123609826365192e-08  6.7314852465444032e-08  8.4618211662019029e-08  9.5878105806856365e-08  9.8862923077741837e-08  9.1318845663072577e-08  7.1020710985235470e-08  3.5816562226954307e-08  0.0000000000000000e+00  0.0000000000000000e+00  4.7928808418717500e-08  5.0896433453923994e-08  5.2932526063393206e-08  5.2950101404335734e-08  5.0308983367687945e-08  4.4758684128841787e-08  3.6383808159730835e-08  2.5550573297172590e-08  1.2853113331008593e-08  -9.4135714575770049e-10  -1.4948843073424095e-08  -2.8226043196889978e-08  -3.9828161603656671e-08  -4.8865801549537614e-08  -5.4559415679832166e-08  -5.6289663022945360e-08  -5.3642035316710615e-08  -4.6444246818990950e-08  -3.4795114085307155e-08  -1.9083965963111738e-08  -3.2074111247743422e-17  2.1468578742412384e-08  4.4045355897399444e-08  6.6185705198694894e-08  8.6104797616357335e-08  1.0181199497519297e-07  1.1114958402701862e-07  1.1183341153008137e-07  1.0149260688723172e-07  7.7705222930516307e-08  3.8026286318188937e-08  0.0000000000000000e+00  0.0000000000000000e+00  3.2979844445726192e-08  2.5162626457609488e-08  2.0138395592928643e-08  1.6289180964149108e-08  1.2469279704884232e-08  7.9489732528724173e-09  2.3611584157594463e-09  -4.3505807253475543e-09  -1.1983743888931489e-08  -2.0129434370736018e-08  -2.8226043196971293e-08  -3.5613996338806908e-08  -4.1590988703499483e-08  -4.5466741144205010e-08  -4.6616040987522108e-08  -4.4528671030762211e-08  -3.8854794671536912e-08  -2.9444437483058052e-08  -1.6379876139096169e-08  -3.5260103405415208e-17  1.9083965895853934e-08  3.9981612339122600e-08  6.1525191641510324e-08  8.2279541956870511e-08  1.0055902444144557e-07  1.1444996037105219e-07  1.2183661511791608e-07  1.2042834905673085e-07  1.0778514377065096e-07  8.1338315636971041e-08  3.8402847998132803e-08  0.0000000000000000e+00  0.0000000000000000e+00  1.8400608953113859e-08  6.3332609272768233e-10  -1.0913439695764209e-08  -1.8308707472933889e-08  -2.3141586872065011e-08  -2.6575214158927065e-08  -2.9396819315927712e-08  -3.2065701768789197e-08  -3.4760582322051689e-08  -3.7427399690495144e-08  -3.9828161603819301e-08  -4.1590988703580798e-08  -4.2261048678561217e-08  -4.1351702684623343e-08  -3.8394898420355606e-08  -3.2989655977450397e-08  -2.4847407163101996e-08  -1.3832963905088599e-08  -3.7895052426639856e-17  1.6379876065983673e-08  3.4795114015576014e-08  5.4479607378920506e-08  7.4405425351025875e-08  9.3282430628919871e-08  1.0956388878874613e-07  1.2145672665363623e-07  1.2693464585343376e-07  1.2375184979552118e-07  1.0945470176606197e-07  8.1388200438565865e-08  3.6693735940950944e-08  0.0000000000000000e+00  0.0000000000000000e+00  4.7376641203968111e-09  -2.1773984483090857e-08  -3.9032226457028248e-08  -4.9470142335156979e-08  -5.5050144116437489e-08  -5.7313909800730547e-08  -5.7427249138645455e-08  -5.6222070046868240e-08  -5.4237213586958723e-08  -5.1759491384974557e-08  -4.8865801549781559e-08  -4.5466741144421850e-08  -4.1351702684711434e-08  -3.6235063763393946e-08  -2.9802771543680070e-08  -2.1758399818645399e-08  -1.1867621967899479e-08  -3.9877693659550043e-17  1.3832963827346221e-08  2.9444437408058366e-08  4.6444246747453935e-08  6.4216685094859664e-08  8.1904252162176929e-08  9.8397054165050605e-08  1.1232718023087375e-07  1.2206693130396759e-07  1.2572932372765475e-07  1.2116882959667977e-07  1.0597985550604607e-07  7.7490002713042971e-08  3.2744692899507949e-08  0.0000000000000000e+00  0.0000000000000000e+00  -7.5389521399376615e-09  -4.1292734953283952e-08  -6.3231070458431100e-08  -7.6058980954801650e-08  -8.2036186014014154e-08  -8.3021233884475335e-08  -8.0509348565060697e-08  -7.5666558560261469e-08  -6.9362214982239805e-08  -6.2201544417467497e-08  -5.4559415680198084e-08  -4.6616040987786382e-08  -3.8394898420525013e-08  -2.9802771543768162e-08  -2.0671469265700916e-08  -1.0800526292964523e-08  -4.1135238159393888e-17  1.1867621886894330e-08  2.4847407084138196e-08  3.8854794595344605e-08  5.3642035244041964e-08  6.8768830629626580e-08  8.3577460430580208e-08  9.7172345326475772e-08  1.0840360346381421e-07  1.1585373307279720e-07  1.1782610383872979e-07  1.1233347521048701e-07  9.7084288722468345e-08  6.9464006912159631e-08  2.6508290388241662e-08  0.0000000000000000e+00  0.0000000000000000e+00  -1.8048157244851567e-08  -5.7326422854264692e-08  -8.2751724400240091e-08  -9.7206174089217398e-08  -1.0316723198461688e-07  -1.0274413860421794e-07  -9.7706994548241752e-08  -8.9511407966042910e-08  -7.9321147670817884e-08  -6.8030763495497250e-08  -5.6289663023304502e-08  -4.4528671031067142e-08  -3.2989655977674014e-08  -2.1758399818808030e-08  -1.0800526293044144e-08  -4.1615862201194001e-17  1.0800526210216180e-08  2.1758399737167606e-08  3.2989655898019036e-08  4.4528670954122670e-08  5.6289662949856581e-08  6.8030763426311599e-08  7.9321147606524695e-08  8.9511407907238495e-08  9.7706994495468211e-08  1.0274413855800382e-07  1.0316723194538909e-07  9.7206174057409616e-08  8.2751724376109816e-08  5.7326422838066034e-08  1.8048157236711580e-08  0.0000000000000000e+00  0.0000000000000000e+00  -2.6508290396342685e-08  -6.9464006928276974e-08  -9.7084288746456318e-08  -1.1233347524211860e-07  -1.1782610387772041e-07  -1.1585373311877415e-07  -1.0840360351632348e-07  -9.7172345385009137e-08  -8.3577460494575241e-08  -6.8768830698480194e-08  -5.3642035317103638e-08  -3.8854794671882502e-08  -2.4847407163376434e-08  -1.1867621968119708e-08  -4.1285443205824201e-17  1.0800526210133171e-08  2.0671469183254117e-08  2.9802771462480104e-08  3.8394898341181742e-08  4.6616040911146841e-08  5.4559415607000885e-08  6.2201544348566449e-08  6.9362214918204114e-08  7.5666558501741657e-08  8.0509348512531101e-08  8.3021233838518715e-08  8.2036185974982876e-08  7.6058980923149723e-08  6.3231070434429575e-08  4.1292734937166609e-08  7.5389521318400265e-09  0.0000000000000000e+00  0.0000000000000000e+00  -3.2744692907487000e-08  -7.7490002728923145e-08  -1.0597985552969185e-07  -1.2116882962787091e-07  -1.2572932376610327e-07  -1.2206693134927368e-07  -1.1232718028263762e-07  -9.8397054222770818e-08  -8.1904252225291048e-08  -6.4216685162730720e-08  -4.6444246819438183e-08  -2.9444437483451075e-08  -1.3832963905418942e-08  -4.0147074477296024e-17  1.1867621886689348e-08  2.1758399737028693e-08  2.9802771462412341e-08  3.6235063683244301e-08  4.1351702606465918e-08  4.5466741068798749e-08  4.8865801477695667e-08  5.1759491317062843e-08  5.4237213523912367e-08  5.6222069989202237e-08  5.7427249086929011e-08  5.7313909755424448e-08  5.5050144077988970e-08  4.9470142303945509e-08  3.9032226433365535e-08  2.1773984467186966e-08  -4.7376641283843317e-09  0.0000000000000000e+00  0.0000000000000000e+00  -3.6693735948735177e-08  -8.1388200454066568e-08  -1.0945470178913853e-07  -1.2375184982595338e-07  -1.2693464589096071e-07  -1.2145672669783779e-07  -1.0956388883926995e-07  -9.3282430685244174e-08  -7.4405425412581454e-08  -5.4479607445117825e-08  -3.4795114085781493e-08  -1.6379876139517992e-08  -3.8265630093284147e-17  1.3832963827031125e-08  2.4847407083884086e-08  3.2989655897815748e-08  3.8394898341046217e-08  4.1351702606404932e-08  4.2261048602192726e-08  4.1590988629841498e-08  3.9828161533495238e-08  3.7427399624263944e-08  3.4760582260618083e-08  3.2065701712573314e-08  2.9396819265471654e-08  2.6575214114705169e-08  2.3141586834497406e-08  1.8308707442454256e-08  1.0913439672663927e-08  -6.3332610825887845e-10  -1.8400608960913339e-08  0.0000000000000000e+00  0.0000000000000000e+00  -3.8402848005650220e-08  -8.1338315651936419e-08  -1.0778514379292453e-07  -1.2042834908609578e-07  -1.2183661515411149e-07  -1.1444996041371216e-07  -1.0055902449018046e-07  -8.2279542011195816e-08  -6.1525191700897498e-08  -3.9981612403002436e-08  -1.9083965963601323e-08  -3.5707453345582508e-17  1.6379876065587262e-08  2.9444437407706001e-08  3.8854794595060001e-08  4.4528670953878724e-08  4.6616040910950330e-08  4.5466741068690328e-08  4.1590988629746630e-08  3.5613996267629035e-08  2.8226043129046027e-08  2.0129434306768090e-08  1.1983743829557868e-08  4.3505806710832356e-09  -2.3611584644401239e-09  -7.9489732955357727e-09  -1.2469279741110137e-08  -1.6289180993571645e-08  -2.0138395615229327e-08  -2.5162626472598584e-08  -3.2979844453254621e-08  0.0000000000000000e+00  0.0000000000000000e+00  -3.8026286325359918e-08  -7.7705222944793895e-08  -1.0149260690847531e-07  -1.1183341155809783e-07  -1.1114958406153351e-07  -1.0181199501589459e-07  -8.6104797662845892e-08  -6.6185705250516370e-08  -4.4045355954054090e-08  -2.1468578803358098e-08  -3.2567017792821334e-17  1.9083965895393148e-08  3.4795114015166050e-08  4.6444246747081241e-08  5.3642035243716703e-08  5.6289662949551649e-08  5.4559415606756940e-08  4.8865801477505932e-08  3.9828161533359712e-08  2.8226043129046027e-08  1.4948843008683673e-08  9.4135708477132828e-10  -1.2853113387617499e-08  -2.5550573348902587e-08  -3.6383808206188898e-08  -4.4758684169594236e-08  -5.0308983402314652e-08  -5.2950101432443675e-08  -5.2932526084711331e-08  -5.0896433468235463e-08  -4.7928808425903727e-08  0.0000000000000000e+00  0.0000000000000000e+00  -3.5816562233709395e-08  -7.1020710998684659e-08  -9.1318845683091354e-08  -9.8862923104135384e-08  -9.5878105839372266e-08  -8.4618211700365905e-08  -6.7314852509245800e-08  -4.6123609875191559e-08  -2.3070291484841399e-08  -2.8962413865251299e-17  2.1468578741927881e-08  3.9981612338658426e-08  5.4479607378486825e-08  6.4216685094480193e-08  6.8768830629267438e-08  6.8030763425972786e-08  6.2201544348281846e-08  5.1759491316859555e-08  3.7427399624114866e-08  2.0129434306686775e-08  9.4135708470356565e-10  -1.8964055129263896e-08  -3.8374475520107213e-08  -5.6096538453745512e-08  -7.1013825355390782e-08  -8.2143220163380056e-08  -8.8689190609031574e-08  -9.0096360024012243e-08  -8.6101561467906884e-08  -7.6787172391753903e-08  -6.2637571983520515e-08  0.0000000000000000e+00  0.0000000000000000e+00  -3.2111563316916311e-08  -6.1957923016614065e-08  -7.8191550200392324e-08  -8.2633849742097561e-08  -7.7275034199859912e-08  -6.4212699993084046e-08  -4.5585916172583157e-08  -2.3507890705714287e-08  -2.5038213070645620e-17  2.3070291430981114e-08  4.4045355896923412e-08  6.1525191641056314e-08  7.4405425350598971e-08  8.1904252161811011e-08  8.3577460430227842e-08  7.9321147606199434e-08  6.9362214917933064e-08  5.4237213523681974e-08  3.4760582260455453e-08  1.1983743829476552e-08  -1.2853113387725919e-08  -3.8374475520161423e-08  -6.3125936643847040e-08  -8.5631429137732694e-08  -1.0444930297089767e-07  -1.1822582029478361e-07  -1.2574545054294456e-07  -1.2597846559613359e-07  -1.1812762054689657e-07  -1.0167682676136893e-07  -7.6445052783279501e-08  0.0000000000000000e+00  0.0000000000000000e+00  -2.7317503815071645e-08  -5.1298790693886738e-08  -6.3180773869461651e-08  -6.4433808334753772e-08  -5.6787976187421747e-08  -4.2154876874446741e-08  -2.2547386606771146e-08  -2.0950235238817440e-17  2.3507890659905898e-08  4.6123609825912877e-08  6.6185705198244273e-08  8.2279541956446994e-08  9.3282430628567506e-08  9.8397054164684687e-08  9.7172345326109854e-08  8.9511407906859024e-08  7.5666558501402844e-08  5.6222069988917634e-08  3.2065701712342921e-08  4.3505806708799477e-09  -2.5550573349092322e-08  -5.6096538