<?xml version="1.0"?>
<VTKFile type="UnstructuredGrid"  version="0.1"  >
<UnstructuredGrid>
<Piece  NumberOfPoints="1089" NumberOfCells="2048">
<Points>
<DataArray  type="Float64"  NumberOfComponents="3"  format="ascii">0 0 0  0.03125 0 0  0.0625 0 0  0.09375 0 0  0.125 0 0  0.15625 0 0  0.1875 0 0  0.21875 0 0  0.25 0 0  0.28125 0 0  0.3125 0 0  0.34375 0 0  0.375 0 0  0.40625 0 0  0.4375 0 0  0.46875 0 0  0.5 0 0  0.53125 0 0  0.5625 0 0  0.59375 0 0  0.625 0 0  0.65625 0 0  0.6875 0 0  0.71875 0 0  0.75 0 0  0.78125 0 0  0.8125 0 0  0.84375 0 0  0.875 0 0  0.90625 0 0  0.9375 0 0  0.96875 0 0  1 0 0  0 0.03125 0  0.03125 0.03125 0  0.0625 0.03125 0  0.09375 0.03125 0  0.125 0.03125 0  0.15625 0.03125 0  0.1875 0.03125 0  0.21875 0.03125 0  0.25 0.03125 0  0.28125 0.03125 0  0.3125 0.03125 0  0.34375 0.03125 0  0.375 0.03125 0  0.40625 0.03125 0  0.4375 0.03125 0  0.46875 0.03125 0  0.5 0.03125 0  0.53125 0.03125 0  0.5625 0.03125 0  0.59375 0.03125 0  0.625 0.03125 0  0.65625 0.03125 0  0.6875 0.03125 0  0.71875 0.03125 0  0.75 0.03125 0  0.78125 0.03125 0  0.8125 0.03125 0  0.84375 0.03125 0  0.875 0.03125 0  0.90625 0.03125 0  0.9375 0.03125 0  0.96875 0.03125 0  1 0.03125 0  0 0.0625 0  0.03125 0.0625 0  0.0625 0.0625 0  0.09375 0.0625 0  0.125 0.0625 0  0.15625 0.0625 0  0.1875 0.0625 0  0.21875 0.0625 0  0.25 0.0625 0  0.28125 0.0625 0  0.3125 0.0625 0  0.34375 0.0625 0  0.375 0.0625 0  0.40625 0.0625 0  0.4375 0.0625 0  0.46875 0.0625 0  0.5 0.0625 0  0.53125 0.0625 0  0.5625 0.0625 0  0.59375 0.0625 0  0.625 0.0625 0  0.65625 0.0625 0  0.6875 0.0625 0  0.71875 0.0625 0  0.75 0.0625 0  0.78125 0.0625 0  0.8125 0.0625 0  0.84375 0.0625 0  0.875 0.0625 0  0.90625 0.0625 0  0.9375 0.0625 0  0.96875 0.0625 0  1 0.0625 0  0 0.09375 0  0.03125 0.09375 0  0.0625 0.09375 0  0.09375 0.09375 0  0.125 0.09375 0  0.15625 0.09375 0  0.1875 0.09375 0  0.21875 0.09375 0  0.25 0.09375 0  0.28125 0.09375 0  0.3125 0.09375 0  0.34375 0.09375 0  0.375 0.09375 0  0.40625 0.09375 0  0.4375 0.09375 0  0.46875 0.09375 0  0.5 0.09375 0  0.53125 0.09375 0  0.5625 0.09375 0  0.59375 0.09375 0  0.625 0.09375 0  0.65625 0.09375 0  0.6875 0.09375 0  0.71875 0.09375 0  0.75 0.09375 0  0.78125 0.09375 0  0.8125 0.09375 0  0.84375 0.09375 0  0.875 0.09375 0  0.90625 0.09375 0  0.9375 0.09375 0  0.96875 0.09375 0  1 0.09375 0  0 0.125 0  0.03125 0.125 0  0.0625 0.125 0  0.09375 0.125 0  0.125 0.125 0  0.15625 0.125 0  0.1875 0.125 0  0.21875 0.125 0  0.25 0.125 0  0.28125 0.125 0  0.3125 0.125 0  0.34375 0.125 0  0.375 0.125 0  0.40625 0.125 0  0.4375 0.125 0  0.46875 0.125 0  0.5 0.125 0  0.53125 0.125 0  0.5625 0.125 0  0.59375 0.125 0  0.625 0.125 0  0.65625 0.125 0  0.6875 0.125 0  0.71875 0.125 0  0.75 0.125 0  0.78125 0.125 0  0.8125 0.125 0  0.84375 0.125 0  0.875 0.125 0  0.90625 0.125 0  0.9375 0.125 0  0.96875 0.125 0  1 0.125 0  0 0.15625 0  0.03125 0.15625 0  0.0625 0.15625 0  0.09375 0.15625 0  0.125 0.15625 0  0.15625 0.15625 0  0.1875 0.15625 0  0.21875 0.15625 0  0.25 0.15625 0  0.28125 0.15625 0  0.3125 0.15625 0  0.34375 0.15625 0  0.375 0.15625 0  0.40625 0.15625 0  0.4375 0.15625 0  0.46875 0.15625 0  0.5 0.15625 0  0.53125 0.15625 0  0.5625 0.15625 0  0.59375 0.15625 0  0.625 0.15625 0  0.65625 0.15625 0  0.6875 0.15625 0  0.71875 0.15625 0  0.75 0.15625 0  0.78125 0.15625 0  0.8125 0.15625 0  0.84375 0.15625 0  0.875 0.15625 0  0.90625 0.15625 0  0.9375 0.15625 0  0.96875 0.15625 0  1 0.15625 0  0 0.1875 0  0.03125 0.1875 0  0.0625 0.1875 0  0.09375 0.1875 0  0.125 0.1875 0  0.15625 0.1875 0  0.1875 0.1875 0  0.21875 0.1875 0  0.25 0.1875 0  0.28125 0.1875 0  0.3125 0.1875 0  0.34375 0.1875 0  0.375 0.1875 0  0.40625 0.1875 0  0.4375 0.1875 0  0.46875 0.1875 0  0.5 0.1875 0  0.53125 0.1875 0  0.5625 0.1875 0  0.59375 0.1875 0  0.625 0.1875 0  0.65625 0.1875 0  0.6875 0.1875 0  0.71875 0.1875 0  0.75 0.1875 0  0.78125 0.1875 0  0.8125 0.1875 0  0.84375 0.1875 0  0.875 0.1875 0  0.90625 0.1875 0  0.9375 0.1875 0  0.96875 0.1875 0  1 0.1875 0  0 0.21875 0  0.03125 0.21875 0  0.0625 0.21875 0  0.09375 0.21875 0  0.125 0.21875 0  0.15625 0.21875 0  0.1875 0.21875 0  0.21875 0.21875 0  0.25 0.21875 0  0.28125 0.21875 0  0.3125 0.21875 0  0.34375 0.21875 0  0.375 0.21875 0  0.40625 0.21875 0  0.4375 0.21875 0  0.46875 0.21875 0  0.5 0.21875 0  0.53125 0.21875 0  0.5625 0.21875 0  0.59375 0.21875 0  0.625 0.21875 0  0.65625 0.21875 0  0.6875 0.21875 0  0.71875 0.21875 0  0.75 0.21875 0  0.78125 0.21875 0  0.8125 0.21875 0  0.84375 0.21875 0  0.875 0.21875 0  0.90625 0.21875 0  0.9375 0.21875 0  0.96875 0.21875 0  1 0.21875 0  0 0.25 0  0.03125 0.25 0  0.0625 0.25 0  0.09375 0.25 0  0.125 0.25 0  0.15625 0.25 0  0.1875 0.25 0  0.21875 0.25 0  0.25 0.25 0  0.28125 0.25 0  0.3125 0.25 0  0.34375 0.25 0  0.375 0.25 0  0.40625 0.25 0  0.4375 0.25 0  0.46875 0.25 0  0.5 0.25 0  0.53125 0.25 0  0.5625 0.25 0  0.59375 0.25 0  0.625 0.25 0  0.65625 0.25 0  0.6875 0.25 0  0.71875 0.25 0  0.75 0.25 0  0.78125 0.25 0  0.8125 0.25 0  0.84375 0.25 0  0.875 0.25 0  0.90625 0.25 0  0.9375 0.25 0  0.96875 0.25 0  1 0.25 0  0 0.28125 0  0.03125 0.28125 0  0.0625 0.28125 0  0.09375 0.28125 0  0.125 0.28125 0  0.15625 0.28125 0  0.1875 0.28125 0  0.21875 0.28125 0  0.25 0.28125 0  0.28125 0.28125 0  0.3125 0.28125 0  0.34375 0.28125 0  0.375 0.28125 0  0.40625 0.28125 0  0.4375 0.28125 0  0.46875 0.28125 0  0.5 0.28125 0  0.53125 0.28125 0  0.5625 0.28125 0  0.59375 0.28125 0  0.625 0.28125 0  0.65625 0.28125 0  0.6875 0.28125 0  0.71875 0.28125 0  0.75 0.28125 0  0.78125 0.28125 0  0.8125 0.28125 0  0.84375 0.28125 0  0.875 0.28125 0  0.90625 0.28125 0  0.9375 0.28125 0  0.96875 0.28125 0  1 0.28125 0  0 0.3125 0  0.03125 0.3125 0  0.0625 0.3125 0  0.09375 0.3125 0  0.125 0.3125 0  0.15625 0.3125 0  0.1875 0.3125 0  0.21875 0.3125 0  0.25 0.3125 0  0.28125 0.3125 0  0.3125 0.3125 0  0.34375 0.3125 0  0.375 0.3125 0  0.40625 0.3125 0  0.4375 0.3125 0  0.46875 0.3125 0  0.5 0.3125 0  0.53125 0.3125 0  0.5625 0.3125 0  0.59375 0.3125 0  0.625 0.3125 0  0.65625 0.3125 0  0.6875 0.3125 0  0.71875 0.3125 0  0.75 0.3125 0  0.78125 0.3125 0  0.8125 0.3125 0  0.84375 0.3125 0  0.875 0.3125 0  0.90625 0.3125 0  0.9375 0.3125 0  0.96875 0.3125 0  1 0.3125 0  0 0.34375 0  0.03125 0.34375 0  0.0625 0.34375 0  0.09375 0.34375 0  0.125 0.34375 0  0.15625 0.34375 0  0.1875 0.34375 0  0.21875 0.34375 0  0.25 0.34375 0  0.28125 0.34375 0  0.3125 0.34375 0  0.34375 0.34375 0  0.375 0.34375 0  0.40625 0.34375 0  0.4375 0.34375 0  0.46875 0.34375 0  0.5 0.34375 0  0.53125 0.34375 0  0.5625 0.34375 0  0.59375 0.34375 0  0.625 0.34375 0  0.65625 0.34375 0  0.6875 0.34375 0  0.71875 0.34375 0  0.75 0.34375 0  0.78125 0.34375 0  0.8125 0.34375 0  0.84375 0.34375 0  0.875 0.34375 0  0.90625 0.34375 0  0.9375 0.34375 0  0.96875 0.34375 0  1 0.34375 0  0 0.375 0  0.03125 0.375 0  0.0625 0.375 0  0.09375 0.375 0  0.125 0.375 0  0.15625 0.375 0  0.1875 0.375 0  0.21875 0.375 0  0.25 0.375 0  0.28125 0.375 0  0.3125 0.375 0  0.34375 0.375 0  0.375 0.375 0  0.40625 0.375 0  0.4375 0.375 0  0.46875 0.375 0  0.5 0.375 0  0.53125 0.375 0  0.5625 0.375 0  0.59375 0.375 0  0.625 0.375 0  0.65625 0.375 0  0.6875 0.375 0  0.71875 0.375 0  0.75 0.375 0  0.78125 0.375 0  0.8125 0.375 0  0.84375 0.375 0  0.875 0.375 0  0.90625 0.375 0  0.9375 0.375 0  0.96875 0.375 0  1 0.375 0  0 0.40625 0  0.03125 0.40625 0  0.0625 0.40625 0  0.09375 0.40625 0  0.125 0.40625 0  0.15625 0.40625 0  0.1875 0.40625 0  0.21875 0.40625 0  0.25 0.40625 0  0.28125 0.40625 0  0.3125 0.40625 0  0.34375 0.40625 0  0.375 0.40625 0  0.40625 0.40625 0  0.4375 0.40625 0  0.46875 0.40625 0  0.5 0.40625 0  0.53125 0.40625 0  0.5625 0.40625 0  0.59375 0.40625 0  0.625 0.40625 0  0.65625 0.40625 0  0.6875 0.40625 0  0.71875 0.40625 0  0.75 0.40625 0  0.78125 0.40625 0  0.8125 0.40625 0  0.84375 0.40625 0  0.875 0.40625 0  0.90625 0.40625 0  0.9375 0.40625 0  0.96875 0.40625 0  1 0.40625 0  0 0.4375 0  0.03125 0.4375 0  0.0625 0.4375 0  0.09375 0.4375 0  0.125 0.4375 0  0.15625 0.4375 0  0.1875 0.4375 0  0.21875 0.4375 0  0.25 0.4375 0  0.28125 0.4375 0  0.3125 0.4375 0  0.34375 0.4375 0  0.375 0.4375 0  0.40625 0.4375 0  0.4375 0.4375 0  0.46875 0.4375 0  0.5 0.4375 0  0.53125 0.4375 0  0.5625 0.4375 0  0.59375 0.4375 0  0.625 0.4375 0  0.65625 0.4375 0  0.6875 0.4375 0  0.71875 0.4375 0  0.75 0.4375 0  0.78125 0.4375 0  0.8125 0.4375 0  0.84375 0.4375 0  0.875 0.4375 0  0.90625 0.4375 0  0.9375 0.4375 0  0.96875 0.4375 0  1 0.4375 0  0 0.46875 0  0.03125 0.46875 0  0.0625 0.46875 0  0.09375 0.46875 0  0.125 0.46875 0  0.15625 0.46875 0  0.1875 0.46875 0  0.21875 0.46875 0  0.25 0.46875 0  0.28125 0.46875 0  0.3125 0.46875 0  0.34375 0.46875 0  0.375 0.46875 0  0.40625 0.46875 0  0.4375 0.46875 0  0.46875 0.46875 0  0.5 0.46875 0  0.53125 0.46875 0  0.5625 0.46875 0  0.59375 0.46875 0  0.625 0.46875 0  0.65625 0.46875 0  0.6875 0.46875 0  0.71875 0.46875 0  0.75 0.46875 0  0.78125 0.46875 0  0.8125 0.46875 0  0.84375 0.46875 0  0.875 0.46875 0  0.90625 0.46875 0  0.9375 0.46875 0  0.96875 0.46875 0  1 0.46875 0  0 0.5 0  0.03125 0.5 0  0.0625 0.5 0  0.09375 0.5 0  0.125 0.5 0  0.15625 0.5 0  0.1875 0.5 0  0.21875 0.5 0  0.25 0.5 0  0.28125 0.5 0  0.3125 0.5 0  0.34375 0.5 0  0.375 0.5 0  0.40625 0.5 0  0.4375 0.5 0  0.46875 0.5 0  0.5 0.5 0  0.53125 0.5 0  0.5625 0.5 0  0.59375 0.5 0  0.625 0.5 0  0.65625 0.5 0  0.6875 0.5 0  0.71875 0.5 0  0.75 0.5 0  0.78125 0.5 0  0.8125 0.5 0  0.84375 0.5 0  0.875 0.5 0  0.90625 0.5 0  0.9375 0.5 0  0.96875 0.5 0  1 0.5 0  0 0.53125 0  0.03125 0.53125 0  0.0625 0.53125 0  0.09375 0.53125 0  0.125 0.53125 0  0.15625 0.53125 0  0.1875 0.53125 0  0.21875 0.53125 0  0.25 0.53125 0  0.28125 0.53125 0  0.3125 0.53125 0  0.34375 0.53125 0  0.375 0.53125 0  0.40625 0.53125 0  0.4375 0.53125 0  0.46875 0.53125 0  0.5 0.53125 0  0.53125 0.53125 0  0.5625 0.53125 0  0.59375 0.53125 0  0.625 0.53125 0  0.65625 0.53125 0  0.6875 0.53125 0  0.71875 0.53125 0  0.75 0.53125 0  0.78125 0.531
[...]
<PointData  Scalars="phi"> 
<DataArray  type="Float64"  Name="phi"  format="ascii">0.0000000000000000e+00  0.0000000000000000e+00  0.0000000000000000e+00  0.0000000000000000e+00  0.0000000000000000e+00  0.0000000000000000e+00  0.0000000000000000e+00  0.0000000000000000e+00  0.0000000000000000e+00  0.0000000000000000e+00  0.0000000000000000e+00  0.0000000000000000e+00  0.0000000000000000e+00  0.0000000000000000e+00  0.0000000000000000e+00  0.0000000000000000e+00  0.0000000000000000e+00  0.0000000000000000e+00  0.0000000000000000e+00  0.0000000000000000e+00  0.0000000000000000e+00  0.0000000000000000e+00  0.0000000000000000e+00  0.0000000000000000e+00  0.0000000000000000e+00  0.0000000000000000e+00  0.0000000000000000e+00  0.0000000000000000e+00  0.0000000000000000e+00  0.0000000000000000e+00  0.0000000000000000e+00  0.0000000000000000e+00  0.0000000000000000e+00  0.0000000000000000e+00  -6.3373947168804395e-06  -1.2517357824755807e-05  -1.8393099046239277e-05  -2.3828294423919774e-05  -2.8700533585107596e-05  -3.2905442440496570e-05  -3.6359982318648301e-05  -3.9004918933123566e-05  -4.0806406720558046e-05  -4.1756645193766948e-05  -4.1873592194099338e-05  -4.1199752286633707e-05  -3.9800092628693675e-05  -3.7759171187523482e-05  -3.5177591616524554e-05  -3.2167924177232510e-05  -2.8850251812267655e-05  -2.5347514062486782e-05  -2.1780828456060709e-05  -1.8264969015361756e-05  -1.4904174634553649e-05  -1.1788446548409101e-05  -8.9904744684627052e-06  -6.5633059684717922e-06  -4.5388443253780598e-06  -2.9272274017665062e-06  -1.7171055561067622e-06  -8.7680133883335061e-07  -3.5629928337079685e-07  -8.9981918668928823e-08  -1.3644325921829450e-18  0.0000000000000000e+00  0.0000000000000000e+00  -1.2517357824755778e-05  -2.4731124253642248e-05  -3.6342962076575116e-05  -4.7081229459842435e-05  -5.6702602923651713e-05  -6.4999827792815650e-05  -7.1808154186074066e-05  -7.7010208360101602e-05  -8.0539129282416813e-05  -8.2379866602452198e-05  -8.2568604405892359e-05  -8.1190345113824020e-05  -7.8374756927348293e-05  -7.4290453451644758e-05  -6.9137932921845650e-05  -6.3141454476451506e-05  -5.6540168238300587e-05  -4.9578843055050607e-05  -4.2498549586512691e-05  -3.5527656484700735e-05  -2.8873483705393545e-05  -2.2714930058486114e-05  -1.7196352997889365e-05  -1.2422928887150893e-05  -8.4576634800522238e-06  -5.3201573866003140e-06  -2.9871623626246415e-06  -1.3948940270523064e-06  -4.4299778809062263e-07  -5.3614556629331954e-18  8.9981918663518255e-08  0.0000000000000000e+00  0.0000000000000000e+00  -1.8393099046239162e-05  -3.6342962076574974e-05  -5.3403567092550995e-05  -6.9172133299344105e-05  -8.3288189322882396e-05  -9.5444984551175982e-05  -1.0539898291782467e-04  -1.1297706317021186e-04  -1.1808115676595456e-04  -1.2069015968442037e-04  -1.2085906067805701e-04  -1.1871533497354550e-04  -1.1445275625517211e-04  -1.0832287733966660e-04  -1.0062451767896269e-04  -9.1691670395211214e-05  -8.1880300130476795e-05  -7.1554543357745245e-05  -6.1072843423438323e-05  -5.0774552705663943e-05  -4.0967513895692936e-05  -3.1917092348278194e-05  -2.3837073260515454e-05  -1.6882763384927966e-05  -1.1146549923437951e-05  -6.6560725435405414e-06  -3.3750618286923348e-06  -1.2067928587888799e-06  -1.1675109759547741e-17  4.4299778807479752e-07  3.5629928336280981e-07  0.0000000000000000e+00  0.0000000000000000e+00  -2.3828294423919492e-05  -4.7081229459842002e-05  -6.9172133299343725e-05  -8.9573358693405467e-05  -1.0781300854159788e-04  -1.2348992482208925e-04  -1.3628614649345620e-04  -1.4597635376952013e-04  -1.5243394451180917e-04  -1.5563352453011969e-04  -1.5564973397674123e-04  -1.5265247311178383e-04  -1.4689872811669553e-04  -1.3872132659739397e-04  -1.2851506826454018e-04  -1.1672077469982375e-04  -1.0380787941688265e-04  -9.0256232690381663e-05  -7.6537822853721361e-05  -6.3099115945593621e-05  -5.0344688744562296e-05  -3.8622777431232926e-05  -2.8213287416683111e-05  -1.9318712246333584e-05  -1.2058294702745319e-05  -6.4656357135226869e-06  -2.4898213238184437e-06  -1.9803267087628699e-17  1.2067928587584654e-06  1.3948940270316898e-06  8.7680133882294312e-07  0.0000000000000000e+00  0.0000000000000000e+00  -2.8700533585107037e-05  -5.6702602923650805e-05  -8.3288189322881339e-05  -1.0781300854159707e-04  -1.2970124912120408e-04  -1.4846400703243318e-04  -1.6371458436269219e-04  -1.7518007326132213e-04  -1.8270879480040947e-04  -1.8627332567735811e-04  -1.8596901707955738e-04  -1.8200808340490174e-04  -1.7470950773586358e-04  -1.6448516987899143e-04  -1.5182274554931878e-04  -1.3726604657365553e-04  -1.2139356725244259e-04  -1.0479606767053078e-04  -8.8054058317452695e-05  -7.1716050625166401e-05  -5.6278404988248821e-05  -4.2167542805790426e-05  -2.9725194608909094e-05  -1.9197236073533825e-05  -1.0726522310912403e-05  -4.3499737283068540e-06  -2.9099832806795248e-17  2.4898213237704254e-06  3.3750618286554511e-06  2.9871623625996354e-06  1.7171055560941372e-06  0.0000000000000000e+00  0.0000000000000000e+00  -3.2905442440495642e-05  -6.4999827792813970e-05  -9.5444984551173922e-05  -1.2348992482208719e-04  -1.4846400703243175e-04  -1.6979863179358327e-04  -1.8704522212901716e-04  -1.9988881880194116e-04  -2.0815679065503502e-04  -2.1182234869261899e-04  -2.1100275272018269e-04  -2.0595230276461104e-04  -1.9705040649842264e-04  -1.8478520100307283e-04  -1.6973337539702530e-04  -1.5253698378649321e-04  -1.3387815027477435e-04  -1.1445264515122855e-04  -9.4943350961432214e-05  -7.5994637468101652e-05  -5.8188625583542853e-05  -4.2024243727724082e-05  -2.7899868725409739e-05  -1.6100201614557685e-05  -6.7878620722895221e-06  -3.8822920481669976e-17  4.3499737282396166e-06  6.4656357134671910e-06  6.6560725434979009e-06  5.3201573865713980e-06  2.9272274017519051e-06  0.0000000000000000e+00  0.0000000000000000e+00  -3.6359982318646851e-05  -7.1808154186071382e-05  -1.0539898291782119e-04  -1.3628614649345246e-04  -1.6371458436268877e-04  -1.8704522212901502e-04  -2.0577543839942855e-04  -2.1955451835328714e-04  -2.2819352908105559e-04  -2.3166926504230288e-04  -2.3012213888038869e-04  -2.2384812412716760e-04  -2.1328508300349504e-04  -1.9899402586648647e-04  -1.8163604073635143e-04  -1.6194579445592898e-04  -1.4070263519872916e-04  -1.1870041438655629e-04  -9.6717191269248218e-05  -7.5485983773359799e-05  -5.5667684779379252e-05  -3.7827175492249058e-05  -2.2413540432493350e-05  -9.7451267196711763e-06  -4.8195174883674829e-17  6.7878620722029825e-06  1.0726522310837422e-05  1.2058294702683406e-05  1.1146549923390369e-05  8.4576634800199451e-06  4.5388443253617553e-06  0.0000000000000000e+00  0.0000000000000000e+00  -3.9004918933121465e-05  -7.7010208360097659e-05  -1.1297706317020652e-04  -1.4597635376951404e-04  -1.7518007326131605e-04  -1.9988881880193593e-04  -2.1955451835328389e-04  -2.3379756625812795e-04  -2.4241774253082505e-04  -2.4539852727835149e-04  -2.4290467347646064e-04  -2.3527315832548964e-04  -2.2299788551280342e-04  -2.0670874814908863e-04  -1.8714587579468555e-04  -1.6513007066975641e-04  -1.4153058091117301e-04  -1.1723145716233021e-04  -9.3097789127252428e-05  -6.9943119101798957e-05  -4.8499279945699208e-05  -2.9389807430035327e-05  -1.3107935177986077e-05  -5.6470650369041743e-17  9.7451267195667982e-06  1.6100201614463905e-05  1.9197236073452513e-05  1.9318712246266408e-05  1.6882763384876317e-05  1.2422928887115852e-05  6.5633059684540901e-06  0.0000000000000000e+00  0.0000000000000000e+00  -4.0806406720555152e-05  -8.0539129282411310e-05  -1.1808115676594699e-04  -1.5243394451180023e-04  -1.8270879480039996e-04  -2.0815679065502605e-04  -2.2819352908104841e-04  -2.4241774253082088e-04  -2.5062312853156479e-04  -2.5280296544391887e-04  -2.4914736694123718e-04  -2.4003330816014373e-04  -2.2600783160397570e-04  -2.0776510010697460e-04  -1.8611819748674067e-04  -1.6196677595796790e-04  -1.3626180534644542e-04  -1.0996878666781757e-04  -8.4030847627575829e-05  -5.9333137986370373e-05  -3.6669888547161878e-05  -1.6715390885129103e-05  -6.2993532447408277e-17  1.3107935177866720e-05  2.2413540432382927e-05  2.7899868725310443e-05  2.9725194608822930e-05  2.8213287416611885e-05  2.3837073260460672e-05  1.7196352997852187e-05  8.9904744684439197e-06  0.0000000000000000e+00  0.0000000000000000e+00  -4.1756645193763180e-05  -8.2379866602444947e-05  -1.2069015968441020e-04  -1.5563352453010746e-04  -1.8627332567734478e-04  -2.1182234869260565e-04  -2.3166926504229084e-04  -2.4539852727834205e-04  -2.5280296544391350e-04  -2.5388863297187757e-04  -2.4887174537135194e-04  -2.3816785615309659e-04  -2.2237371001411832e-04  -2.0224249183051289e-04  -1.7865344073978722e-04  -1.5257701187509963e-04  -1.2503693595137031e-04  -9.7070642473373321e-05  -6.9689571425685635e-05  -4.3840898677579985e-05  -2.0372142017071975e-05  -6.7244097534302382e-17  1.6715390884998836e-05  2.9389807429911745e-05  3.7827175492134580e-05  4.2024243727621035e-05  4.2167542805700945e-05  3.8622777431158902e-05  3.1917092348221239e-05  2.2714930058447439e-05  1.1788446548389557e-05  0.0000000000000000e+00  0.0000000000000000e+00  -4.1873592194094588e-05  -8.2568604405883171e-05  -1.2085906067804403e-04  -1.5564973397672532e-04  -1.8596901707953968e-04  -2.1100275272016429e-04  -2.3012213888037105e-04  -2.4290467347644516e-04  -2.4914736694122547e-04  -2.4887174537134555e-04  -2.4232047962888096e-04  -2.2994579493923177e-04  -2.1239012874857955e-04  -1.9045979977993496e-04  -1.6509271696192709e-04  -1.3732138296000622e-04  -1.0823262472103179e-04  -7.8925605928562920e-05  -5.0469738868979930e-05  -2.3864113548723027e-05  -6.8868191043255805e-17  2.0372142016935725e-05  3.6669888547029659e-05  4.8499279945573570e-05  5.5667684779262700e-05  5.8188625583437814e-05  5.6278404988157510e-05  5.0344688744486700e-05  4.0967513895634735e-05  2.8873483705354016e-05  1.4904174634533666e-05  0.0000000000000000e+00  0.0000000000000000e+00  -4.1199752286627893e-05  -8.1190345113812772e-05  -1.1871533497352943e-04  -1.5265247311176388e-04  -1.8200808340487922e-04  -2.0595230276458705e-04  -2.2384812412714375e-04  -2.3527315832546749e-04  -2.4003330816012495e-04  -2.3816785615308279e-04  -2.2994579493922435e-04  -2.1585356339060409e-04  -1.9657467947252426e-04  -1.7296206983838394e-04  -1.4600417436124352e-04  -1.1678614045391855e-04  -8.6447608037519647e-05  -5.6138714231584707e-05  -2.6976012340244485e-05  -6.7722265855079103e-17  2.3864113548586224e-05  4.3840898677444310e-05  5.9333137986238432e-05  6.9943119101673352e-05  7.5485983773243071e-05  7.5994637467996295e-05  7.1716050625074719e-05  6.3099115945517646e-05  5.0774552705605417e-05  3.5527656484660972e-05  1.8264969015341651e-05  0.0000000000000000e+00  0.0000000000000000e+00  -3.9800092628686729e-05  -7.8374756927334862e-05  -1.1445275625515275e-04  -1.4689872811667133e-04  -1.7470950773583571e-04  -1.9705040649839264e-04  -2.1328508300346450e-04  -2.2299788551277395e-04  -2.2600783160394911e-04  -2.2237371001409634e-04  -2.1239012874856367e-04  -1.9657467947251577e-04  -1.7564672766325935e-04  -1.5049865788858242e-04  -1.2216069155775459e-04  -9.1760639470411725e-05  -6.0480144031334050e-05  -2.9509098699411133e-05  -6.3865824435507939e-17  2.6976012340112673e-05  5.0469738868846295e-05  6.9689571425552699e-05  8.4030847627446239e-05  9.3097789127128788e-05  9.6717191269133130e-05  9.4943350961328239e-05  8.8054058317362015e-05  7.6537822853646117e-05  6.1072843423380359e-05  4.2498549586473287e-05  2.1780828456040773e-05  0.0000000000000000e+00  0.0000000000000000e+00  -3.7759171187515432e-05  -7.4290453451629037e-05  -1.0832287733964387e-04  -1.3872132659736541e-04  -1.6448516987895833e-04  -1.8478520100303667e-04  -1.9899402586644901e-04  -2.0670874814905164e-04  -2.0776510010693986e-04  -2.0224249183048231e-04  -1.9045979977991013e-04  -1.7296206983836635e-04  -1.5049865788857318e-04  -1.2399365862279097e-04  -9.4509768306917720e-05  -6.3206978171013282e-05  -3.1297692324244383e-05  -5.7567570752836954e-17  2.9509098699289527e-05  5.6138714231458560e-05  7.8925605928434537e-05  9.7070642473245114e-05  1.0996878666769218e-04  1.1723145716221031e-04  1.1870041438644448e-04  1.1445264515112733e-04  1.0479606767044244e-04  9.0256232690308304e-05  7.1554543357688663e-05  4.9578843055012125e-05  2.5347514062467300e-05  0.0000000000000000e+00  0.0000000000000000e+00  -3.5177591616515399e-05  -6.9137932921827720e-05  -1.0062451767893674e-04  -1.2851506826450727e-04  -1.5182274554928043e-04  -1.6973337539698309e-04  -1.8163604073630709e-04  -1.8714587579464091e-04  -1.8611819748669769e-04  -1.7865344073974789e-04  -1.6509271696189310e-04  -1.4600417436121636e-04  -1.2216069155773557e-04  -9.4509768306907867e-05  -6.4136776364835630e-05  -3.2222988041214062e-05  -4.9282308334096113e-17  3.1297692324137393e-05  6.0480144031220222e-05  8.6447608037400900e-05  1.0823262472091034e-04  1.2503693595124858e-04  1.3626180534632597e-04  1.4153058091105844e-04  1.4070263519862201e-04  1.3387815027467715e-04  1.2139356725235767e-04  1.0380787941681205e-04  8.1880300130422301e-05  5.6540168238263501e-05  2.8850251812248872e-05  0.0000000000000000e+00  0.0000000000000000e+00  -3.2167924177222345e-05  -6.3141454476431543e-05  -9.1691670395182239e-05  -1.1672077469978689e-04  -1.3726604657361225e-04  -1.5253698378644512e-04  -1.6194579445587796e-04  -1.6513007066970431e-04  -1.6196677595791686e-04  -1.5257701187505160e-04  -1.3732138295996299e-04  -1.1678614045388178e-04  -9.1760639470382776e-05  -6.3206978170993387e-05  -3.2222988041203918e-05  -3.9560430000245310e-17  3.2222988041125164e-05  6.3206978170915744e-05  9.1760639470307031e-05  1.1678614045380861e-04  1.3732138295989314e-04  1.5257701187498579e-04  1.6196677595785574e-04  1.6513007066964853e-04  1.6194579445582785e-04  1.5253698378640127e-04  1.3726604657357503e-04  1.1672077469975672e-04  9.1691670395159375e-05  6.3141454476416201e-05  3.2167924177214634e-05  0.0000000000000000e+00  0.0000000000000000e+00  -2.8850251812256546e-05  -5.6540168238278761e-05  -8.1880300130445069e-05  -1.0380787941684211e-04  -1.2139356725239470e-04  -1.3387815027472082e-04  -1.4070263519867191e-04  -1.4153058091111403e-04  -1.3626180534638676e-04  -1.2503693595131404e-04  -1.0823262472097976e-04  -8.6447608037473623e-05  -6.0480144031295527e-05  -3.1297692324214588e-05  -2.9069688645661051e-17  3.2222988041135308e-05  6.4136776364757202e-05  9.4509768306830536e-05  1.2216069155766005e-04  1.4600417436114340e-04  1.6509271696182344e-04  1.7865344073968243e-04  1.8611819748663700e-04  1.8714587579458548e-04  1.8163604073625716e-04  1.6973337539693954e-04  1.5182274554924351e-04  1.2851506826447732e-04  1.0062451767891402e-04  6.9137932921812460e-05  3.5177591616507749e-05  0.0000000000000000e+00  0.0000000000000000e+00  -2.5347514062474862e-05  -4.9578843055027188e-05  -7.1554543357711119e-05  -9.0256232690337943e-05  -1.0479606767047897e-04  -1.1445264515117038e-04  -1.1870041438649365e-04  -1.1723145716226513e-04  -1.0996878666775217e-04  -9.7070642473309624e-05  -7.8925605928502923e-05  -5.6138714231530191e-05  -2.9509098699363686e-05  -1.8471185830763647e-17  3.1297692324167188e-05  6.3206978170935666e-05  9.4509768306840403e-05  1.2399365862271467e-04  1.5049865788849861e-04  1.7296206983829425e-04  1.9045979977984150e-04  2.0224249183041780e-04  2.0776510010688003e-04  2.0670874814899696e-04  1.9899402586639995e-04  1.8478520100299379e-04  1.6448516987892196e-04  1.3872132659733589e-04  1.0832287733962151e-04  7.4290453451614008e-05  3.7759171187507883e-05  0.0000000000000000e+00  0.0000000000000000e+00  -2.1780828456048160e-05  -4.2498549586488005e-05  -6.1072843423402260e-05  -7.6537822853675066e-05  -8.8054058317397726e-05  -9.4943350961370170e-05  -9.6717191269181106e-05  -9.3097789127182239e-05  -8.4030847627504705e-05  -6.9689571425615636e-05  -5.0469738868912994e-05  -2.6976012340182520e-05  -8.4697999427771371e-18  2.9509098699336998e-05  6.0480144031258779e-05  9.1760639470336007e-05  1.2216069155767913e-04  1.5049865788850796e-04  1.7564672766318668e-04  1.9657467947244549e-04  2.1239012874849677e-04  2.2237371001403348e-04  2.2600783160389089e-04  2.2299788551272072e-04  2.1328508300341671e-04  1.9705040649835076e-04  1.7470950773580029e-04  1.4689872811664249e-04  1.1445275625513090e-04  7.8374756927320158e-05  3.9800092628679343e-05  0.0000000000000000e+00  0.0000000000000000e+00  -1.8264969015348783e-05  -3.5527656484675175e-05  -5.0774552705626565e-05  -6.3099115945545537e-05  -7.1716050625109101e-05  -7.5994637468036804e-05  -7.5485983773289339e-05  -6.9943119101724893e-05  -5.9333137986294804e-05  -4.3840898677504971e-05  -2.3864113548650558e-05  3.3579249953683001e-19  2.6976012340174703e-05  5.6138714231513149e-05  8.6447608037446978e-05  1.1678614045384546e-04  1.4600417436117066e-04  1.7296206983831203e-04  1.9657467947245403e-04  2.1585356339053633e-04  2.2994579493915975e-04  2.3816785615302213e-04  2.4003330816006882e-04  2.3527315832541615e-04  2.2384812412709764e-04  2.0595230276454658e-04  1.8200808340484482e-04  1.5265247311173599e-04  1.1871533497350827e-04  8.1190345113798555e-05  4.1199752286620764e-05  0.0000000000000000e+00  0.0000000000000000e+00  -1.4904174634540473e-05  -2.8873483705367575e-05  -4.0967513895654901e-05  -5.0344688744513310e-05  -5.6278404988190280e-05  -5.8188625583476425e-05  -5.5667684779306807e-05  -4.8499279945622738e-05  -3.6669888547083422e-05  -2.0372142016993564e-05  7.5186825638659447e-18  2.3864113548658744e-05  5.0469738868913319e-05  7.8925605928494629e-05  1.0823262472096244e-04  1.3732138295993645e-04  1.6509271696185762e-04  1.9045979977986644e-04  2.1239012874851271e-04  2.2994579493916732e-04  2.4232047962881946e-04  2.4887174537128770e-04  2.4914736694117191e-04  2.4290467347639621e-04  2.3012213888032700e-04  2.1100275272012566e-04  1.8596901707950678e-04  1.5564973397669859e-04  1.2085906067802379e-04  8.2568604405869577e-05  4.1873592194087771e-05  0.0000000000000000e+00  0.0000000000000000e+00  -1.1788446548395965e-05  -2.2714930058460202e-05  -3.1917092348240233e-05  -3.8622777431183954e-05  -4.2167542805731804e-05  -4.2024243727657410e-05  -3.7827175492176118e-05  -2.9389807429958058e-05  -1.6715390885049475e-05  1.2765010994845375e-17  2.0372142017014191e-05  4.3840898677519445e-05  6.9689571425622928e-05  9.7070642473308960e-05  1.2503693595130498e-04  1.5257701187503398e-04  1.7865344073972187e-04  2.0224249183044843e-04  2.2237371001405546e-04  2.3816785615303593e-04  2.4887174537129405e-04  2.5388863297182303e-04  2.5280296544386298e-04  2.4539852727829597e-04  2.3166926504224937e-04  2.1182234869256922e-04  1.8627332567731380e-04  1.5563352453008223e-04  1.2069015968439107e-04  8.2379866602432100e-05  4.1756645193756736e-05  0.0000000000000000e+00  0.0000000000000000e+00  -8.9904744684498709e-06  -1.7196352997864035e-05  -2.3837073260478314e-05  -2.8213287416635148e-05  -2.9725194608851604e-05  -2.7899868725344233e-05  -2.2413540432421522e-05  -1.3107935177909734e-05  1.5957283054237384e-17  1.6715390885078511e-05  3.6669888547108216e-05  5.9333137986314164e-05  8.4030847627517566e-05  1.0996878666775775e-04  1.3626180534638473e-04  1.6196677595790686e-04  1.8611819748668001e-04  2.0776510010691473e-04  2.2600783160391745e-04  2.4003330816008741e-04  2.4914736694118335e-04  2.5280296544386824e-04  2.5062312853151773e-04  2.4241774253077792e-04  2.2819352908100979e-04  2.0815679065499214e-04  1.8270879480037112e-04  1.5243394451177670e-04  1.1808115676592906e-04  8.0539129282399303e-05  4.0806406720549149e-05  0.0000000000000000e+00  0.0000000000000000e+00  -6.5633059684595306e-06  -1.2422928887126682e-05  -1.6882763384892438e-05  -1.9318712246287675e-05  -1.9197236073478721e-05  -1.6100201614494788e-05  -9.7451267196020703e-06  1.7151606308483324e-17  1.3107935177943087e-05  2.9389807429989083e-05  4.8499279945650155e-05  6.9943119101747566e-05  9.3097789127199180e-05  1.1723145716227557e-04  1.4153058091111756e-04  1.6513007066970057e-04  1.8714587579463007e-04  2.067087481490