<?xml version="1.0"?>
<VTKFile type="UnstructuredGrid"  version="0.1"  >
<UnstructuredGrid>
<Piece  NumberOfPoints="1089" NumberOfCells="2048">
<Points>
<DataArray  type="Float64"  NumberOfComponents="3"  format="ascii">0 0 0  0.03125 0 0  0.0625 0 0  0.09375 0 0  0.125 0 0  0.15625 0 0  0.1875 0 0  0.21875 0 0  0.25 0 0  0.28125 0 0  0.3125 0 0  0.34375 0 0  0.375 0 0  0.40625 0 0  0.4375 0 0  0.46875 0 0  0.5 0 0  0.53125 0 0  0.5625 0 0  0.59375 0 0  0.625 0 0  0.65625 0 0  0.6875 0 0  0.71875 0 0  0.75 0 0  0.78125 0 0  0.8125 0 0  0.84375 0 0  0.875 0 0  0.90625 0 0  0.9375 0 0  0.96875 0 0  1 0 0  0 0.03125 0  0.03125 0.03125 0  0.0625 0.03125 0  0.09375 0.03125 0  0.125 0.03125 0  0.15625 0.03125 0  0.1875 0.03125 0  0.21875 0.03125 0  0.25 0.03125 0  0.28125 0.03125 0  0.3125 0.03125 0  0.34375 0.03125 0  0.375 0.03125 0  0.40625 0.03125 0  0.4375 0.03125 0  0.46875 0.03125 0  0.5 0.03125 0  0.53125 0.03125 0  0.5625 0.03125 0  0.59375 0.03125 0  0.625 0.03125 0  0.65625 0.03125 0  0.6875 0.03125 0  0.71875 0.03125 0  0.75 0.03125 0  0.78125 0.03125 0  0.8125 0.03125 0  0.84375 0.03125 0  0.875 0.03125 0  0.90625 0.03125 0  0.9375 0.03125 0  0.96875 0.03125 0  1 0.03125 0  0 0.0625 0  0.03125 0.0625 0  0.0625 0.0625 0  0.09375 0.0625 0  0.125 0.0625 0  0.15625 0.0625 0  0.1875 0.0625 0  0.21875 0.0625 0  0.25 0.0625 0  0.28125 0.0625 0  0.3125 0.0625 0  0.34375 0.0625 0  0.375 0.0625 0  0.40625 0.0625 0  0.4375 0.0625 0  0.46875 0.0625 0  0.5 0.0625 0  0.53125 0.0625 0  0.5625 0.0625 0  0.59375 0.0625 0  0.625 0.0625 0  0.65625 0.0625 0  0.6875 0.0625 0  0.71875 0.0625 0  0.75 0.0625 0  0.78125 0.0625 0  0.8125 0.0625 0  0.84375 0.0625 0  0.875 0.0625 0  0.90625 0.0625 0  0.9375 0.0625 0  0.96875 0.0625 0  1 0.0625 0  0 0.09375 0  0.03125 0.09375 0  0.0625 0.09375 0  0.09375 0.09375 0  0.125 0.09375 0  0.15625 0.09375 0  0.1875 0.09375 0  0.21875 0.09375 0  0.25 0.09375 0  0.28125 0.09375 0  0.3125 0.09375 0  0.34375 0.09375 0  0.375 0.09375 0  0.40625 0.09375 0  0.4375 0.09375 0  0.46875 0.09375 0  0.5 0.09375 0  0.53125 0.09375 0  0.5625 0.09375 0  0.59375 0.09375 0  0.625 0.09375 0  0.65625 0.09375 0  0.6875 0.09375 0  0.71875 0.09375 0  0.75 0.09375 0  0.78125 0.09375 0  0.8125 0.09375 0  0.84375 0.09375 0  0.875 0.09375 0  0.90625 0.09375 0  0.9375 0.09375 0  0.96875 0.09375 0  1 0.09375 0  0 0.125 0  0.03125 0.125 0  0.0625 0.125 0  0.09375 0.125 0  0.125 0.125 0  0.15625 0.125 0  0.1875 0.125 0  0.21875 0.125 0  0.25 0.125 0  0.28125 0.125 0  0.3125 0.125 0  0.34375 0.125 0  0.375 0.125 0  0.40625 0.125 0  0.4375 0.125 0  0.46875 0.125 0  0.5 0.125 0  0.53125 0.125 0  0.5625 0.125 0  0.59375 0.125 0  0.625 0.125 0  0.65625 0.125 0  0.6875 0.125 0  0.71875 0.125 0  0.75 0.125 0  0.78125 0.125 0  0.8125 0.125 0  0.84375 0.125 0  0.875 0.125 0  0.90625 0.125 0  0.9375 0.125 0  0.96875 0.125 0  1 0.125 0  0 0.15625 0  0.03125 0.15625 0  0.0625 0.15625 0  0.09375 0.15625 0  0.125 0.15625 0  0.15625 0.15625 0  0.1875 0.15625 0  0.21875 0.15625 0  0.25 0.15625 0  0.28125 0.15625 0  0.3125 0.15625 0  0.34375 0.15625 0  0.375 0.15625 0  0.40625 0.15625 0  0.4375 0.15625 0  0.46875 0.15625 0  0.5 0.15625 0  0.53125 0.15625 0  0.5625 0.15625 0  0.59375 0.15625 0  0.625 0.15625 0  0.65625 0.15625 0  0.6875 0.15625 0  0.71875 0.15625 0  0.75 0.15625 0  0.78125 0.15625 0  0.8125 0.15625 0  0.84375 0.15625 0  0.875 0.15625 0  0.90625 0.15625 0  0.9375 0.15625 0  0.96875 0.15625 0  1 0.15625 0  0 0.1875 0  0.03125 0.1875 0  0.0625 0.1875 0  0.09375 0.1875 0  0.125 0.1875 0  0.15625 0.1875 0  0.1875 0.1875 0  0.21875 0.1875 0  0.25 0.1875 0  0.28125 0.1875 0  0.3125 0.1875 0  0.34375 0.1875 0  0.375 0.1875 0  0.40625 0.1875 0  0.4375 0.1875 0  0.46875 0.1875 0  0.5 0.1875 0  0.53125 0.1875 0  0.5625 0.1875 0  0.59375 0.1875 0  0.625 0.1875 0  0.65625 0.1875 0  0.6875 0.1875 0  0.71875 0.1875 0  0.75 0.1875 0  0.78125 0.1875 0  0.8125 0.1875 0  0.84375 0.1875 0  0.875 0.1875 0  0.90625 0.1875 0  0.9375 0.1875 0  0.96875 0.1875 0  1 0.1875 0  0 0.21875 0  0.03125 0.21875 0  0.0625 0.21875 0  0.09375 0.21875 0  0.125 0.21875 0  0.15625 0.21875 0  0.1875 0.21875 0  0.21875 0.21875 0  0.25 0.21875 0  0.28125 0.21875 0  0.3125 0.21875 0  0.34375 0.21875 0  0.375 0.21875 0  0.40625 0.21875 0  0.4375 0.21875 0  0.46875 0.21875 0  0.5 0.21875 0  0.53125 0.21875 0  0.5625 0.21875 0  0.59375 0.21875 0  0.625 0.21875 0  0.65625 0.21875 0  0.6875 0.21875 0  0.71875 0.21875 0  0.75 0.21875 0  0.78125 0.21875 0  0.8125 0.21875 0  0.84375 0.21875 0  0.875 0.21875 0  0.90625 0.21875 0  0.9375 0.21875 0  0.96875 0.21875 0  1 0.21875 0  0 0.25 0  0.03125 0.25 0  0.0625 0.25 0  0.09375 0.25 0  0.125 0.25 0  0.15625 0.25 0  0.1875 0.25 0  0.21875 0.25 0  0.25 0.25 0  0.28125 0.25 0  0.3125 0.25 0  0.34375 0.25 0  0.375 0.25 0  0.40625 0.25 0  0.4375 0.25 0  0.46875 0.25 0  0.5 0.25 0  0.53125 0.25 0  0.5625 0.25 0  0.59375 0.25 0  0.625 0.25 0  0.65625 0.25 0  0.6875 0.25 0  0.71875 0.25 0  0.75 0.25 0  0.78125 0.25 0  0.8125 0.25 0  0.84375 0.25 0  0.875 0.25 0  0.90625 0.25 0  0.9375 0.25 0  0.96875 0.25 0  1 0.25 0  0 0.28125 0  0.03125 0.28125 0  0.0625 0.28125 0  0.09375 0.28125 0  0.125 0.28125 0  0.15625 0.28125 0  0.1875 0.28125 0  0.21875 0.28125 0  0.25 0.28125 0  0.28125 0.28125 0  0.3125 0.28125 0  0.34375 0.28125 0  0.375 0.28125 0  0.40625 0.28125 0  0.4375 0.28125 0  0.46875 0.28125 0  0.5 0.28125 0  0.53125 0.28125 0  0.5625 0.28125 0  0.59375 0.28125 0  0.625 0.28125 0  0.65625 0.28125 0  0.6875 0.28125 0  0.71875 0.28125 0  0.75 0.28125 0  0.78125 0.28125 0  0.8125 0.28125 0  0.84375 0.28125 0  0.875 0.28125 0  0.90625 0.28125 0  0.9375 0.28125 0  0.96875 0.28125 0  1 0.28125 0  0 0.3125 0  0.03125 0.3125 0  0.0625 0.3125 0  0.09375 0.3125 0  0.125 0.3125 0  0.15625 0.3125 0  0.1875 0.3125 0  0.21875 0.3125 0  0.25 0.3125 0  0.28125 0.3125 0  0.3125 0.3125 0  0.34375 0.3125 0  0.375 0.3125 0  0.40625 0.3125 0  0.4375 0.3125 0  0.46875 0.3125 0  0.5 0.3125 0  0.53125 0.3125 0  0.5625 0.3125 0  0.59375 0.3125 0  0.625 0.3125 0  0.65625 0.3125 0  0.6875 0.3125 0  0.71875 0.3125 0  0.75 0.3125 0  0.78125 0.3125 0  0.8125 0.3125 0  0.84375 0.3125 0  0.875 0.3125 0  0.90625 0.3125 0  0.9375 0.3125 0  0.96875 0.3125 0  1 0.3125 0  0 0.34375 0  0.03125 0.34375 0  0.0625 0.34375 0  0.09375 0.34375 0  0.125 0.34375 0  0.15625 0.34375 0  0.1875 0.34375 0  0.21875 0.34375 0  0.25 0.34375 0  0.28125 0.34375 0  0.3125 0.34375 0  0.34375 0.34375 0  0.375 0.34375 0  0.40625 0.34375 0  0.4375 0.34375 0  0.46875 0.34375 0  0.5 0.34375 0  0.53125 0.34375 0  0.5625 0.34375 0  0.59375 0.34375 0  0.625 0.34375 0  0.65625 0.34375 0  0.6875 0.34375 0  0.71875 0.34375 0  0.75 0.34375 0  0.78125 0.34375 0  0.8125 0.34375 0  0.84375 0.34375 0  0.875 0.34375 0  0.90625 0.34375 0  0.9375 0.34375 0  0.96875 0.34375 0  1 0.34375 0  0 0.375 0  0.03125 0.375 0  0.0625 0.375 0  0.09375 0.375 0  0.125 0.375 0  0.15625 0.375 0  0.1875 0.375 0  0.21875 0.375 0  0.25 0.375 0  0.28125 0.375 0  0.3125 0.375 0  0.34375 0.375 0  0.375 0.375 0  0.40625 0.375 0  0.4375 0.375 0  0.46875 0.375 0  0.5 0.375 0  0.53125 0.375 0  0.5625 0.375 0  0.59375 0.375 0  0.625 0.375 0  0.65625 0.375 0  0.6875 0.375 0  0.71875 0.375 0  0.75 0.375 0  0.78125 0.375 0  0.8125 0.375 0  0.84375 0.375 0  0.875 0.375 0  0.90625 0.375 0  0.9375 0.375 0  0.96875 0.375 0  1 0.375 0  0 0.40625 0  0.03125 0.40625 0  0.0625 0.40625 0  0.09375 0.40625 0  0.125 0.40625 0  0.15625 0.40625 0  0.1875 0.40625 0  0.21875 0.40625 0  0.25 0.40625 0  0.28125 0.40625 0  0.3125 0.40625 0  0.34375 0.40625 0  0.375 0.40625 0  0.40625 0.40625 0  0.4375 0.40625 0  0.46875 0.40625 0  0.5 0.40625 0  0.53125 0.40625 0  0.5625 0.40625 0  0.59375 0.40625 0  0.625 0.40625 0  0.65625 0.40625 0  0.6875 0.40625 0  0.71875 0.40625 0  0.75 0.40625 0  0.78125 0.40625 0  0.8125 0.40625 0  0.84375 0.40625 0  0.875 0.40625 0  0.90625 0.40625 0  0.9375 0.40625 0  0.96875 0.40625 0  1 0.40625 0  0 0.4375 0  0.03125 0.4375 0  0.0625 0.4375 0  0.09375 0.4375 0  0.125 0.4375 0  0.15625 0.4375 0  0.1875 0.4375 0  0.21875 0.4375 0  0.25 0.4375 0  0.28125 0.4375 0  0.3125 0.4375 0  0.34375 0.4375 0  0.375 0.4375 0  0.40625 0.4375 0  0.4375 0.4375 0  0.46875 0.4375 0  0.5 0.4375 0  0.53125 0.4375 0  0.5625 0.4375 0  0.59375 0.4375 0  0.625 0.4375 0  0.65625 0.4375 0  0.6875 0.4375 0  0.71875 0.4375 0  0.75 0.4375 0  0.78125 0.4375 0  0.8125 0.4375 0  0.84375 0.4375 0  0.875 0.4375 0  0.90625 0.4375 0  0.9375 0.4375 0  0.96875 0.4375 0  1 0.4375 0  0 0.46875 0  0.03125 0.46875 0  0.0625 0.46875 0  0.09375 0.46875 0  0.125 0.46875 0  0.15625 0.46875 0  0.1875 0.46875 0  0.21875 0.46875 0  0.25 0.46875 0  0.28125 0.46875 0  0.3125 0.46875 0  0.34375 0.46875 0  0.375 0.46875 0  0.40625 0.46875 0  0.4375 0.46875 0  0.46875 0.46875 0  0.5 0.46875 0  0.53125 0.46875 0  0.5625 0.46875 0  0.59375 0.46875 0  0.625 0.46875 0  0.65625 0.46875 0  0.6875 0.46875 0  0.71875 0.46875 0  0.75 0.46875 0  0.78125 0.46875 0  0.8125 0.46875 0  0.84375 0.46875 0  0.875 0.46875 0  0.90625 0.46875 0  0.9375 0.46875 0  0.96875 0.46875 0  1 0.46875 0  0 0.5 0  0.03125 0.5 0  0.0625 0.5 0  0.09375 0.5 0  0.125 0.5 0  0.15625 0.5 0  0.1875 0.5 0  0.21875 0.5 0  0.25 0.5 0  0.28125 0.5 0  0.3125 0.5 0  0.34375 0.5 0  0.375 0.5 0  0.40625 0.5 0  0.4375 0.5 0  0.46875 0.5 0  0.5 0.5 0  0.53125 0.5 0  0.5625 0.5 0  0.59375 0.5 0  0.625 0.5 0  0.65625 0.5 0  0.6875 0.5 0  0.71875 0.5 0  0.75 0.5 0  0.78125 0.5 0  0.8125 0.5 0  0.84375 0.5 0  0.875 0.5 0  0.90625 0.5 0  0.9375 0.5 0  0.96875 0.5 0  1 0.5 0  0 0.53125 0  0.03125 0.53125 0  0.0625 0.53125 0  0.09375 0.53125 0  0.125 0.53125 0  0.15625 0.53125 0  0.1875 0.53125 0  0.21875 0.53125 0  0.25 0.53125 0  0.28125 0.53125 0  0.3125 0.53125 0  0.34375 0.53125 0  0.375 0.53125 0  0.40625 0.53125 0  0.4375 0.53125 0  0.46875 0.53125 0  0.5 0.53125 0  0.53125 0.53125 0  0.5625 0.53125 0  0.59375 0.53125 0  0.625 0.53125 0  0.65625 0.53125 0  0.6875 0.53125 0  0.71875 0.53125 0  0.75 0.53125 0  0.78125 0.531
[...]
<PointData  Scalars="theta_dt"> 
<DataArray  type="Float64"  Name="theta_dt"  format="ascii">-2.8097168065184999e-06  -4.2170230289369977e-06  -9.0868556694004672e-07  1.4528911205000062e-06  5.7379128502591535e-06  4.8393633281254318e-06  -5.2486683432342843e-17  -5.4649057383703468e-06  -8.5080983415595785e-06  -2.6992090456192019e-06  3.8971558136284301e-06  4.1773260006030969e-06  1.0279591451488814e-05  1.6910440543107466e-05  6.7177887777627690e-06  5.1019762085826482e-06  -7.3668048124160613e-06  -8.0277562274749612e-06  -1.2961880050405991e-05  -1.3393633469109533e-05  -1.2302084231933496e-05  -1.8711740779593948e-05  -3.9921534007488559e-06  -2.7648176096582666e-06  5.4171044193318500e-06  5.5524731379905780e-06  3.5562861696344368e-06  6.2160024054178638e-06  2.6368621981570105e-05  2.9381904044538990e-05  2.3274847997016002e-05  1.7725673530826056e-05  1.5815265423508195e-05  2.7740805107191323e-06  -2.7183444891776798e-06  -3.8509583614477934e-06  -8.4647640323504023e-07  1.4419987522344329e-06  5.9111122730807790e-06  4.9854399516519785e-06  -5.2093189193912306e-17  -5.0907749850278748e-06  -7.7695407930243107e-06  -2.6114304535157744e-06  4.1193832443644458e-06  4.3503303182024355e-06  1.0934915517542266e-05  1.5589365854257160e-05  7.1915037624601189e-06  5.6086606727995684e-06  -6.8856604652663741e-06  -8.1954259464584788e-06  -1.1872559155855658e-05  -1.4502152860811343e-05  -1.1268212806781431e-05  -1.9102558864910148e-05  -3.7314159317056427e-06  -3.0393955519957051e-06  5.7990996892043180e-06  5.1187037335553738e-06  3.7829994513570221e-06  6.4734386826415979e-06  2.7872239336185931e-05  2.8426401107656982e-05  2.1254441792348649e-05  1.6512163196141263e-05  4.7775644399522955e-06  2.8378313726408059e-06  -2.5830302873321554e-06  -3.5062713378665476e-06  -8.1075076795674961e-07  1.4855256161158222e-06  6.2879457443305236e-06  5.3032618024132520e-06  -5.3665626861890423e-17  -4.8759182333170433e-06  -7.0741139306227717e-06  -2.4814382362308066e-06  4.2874274450399081e-06  4.4411924023601551e-06  1.1892097066219163e-05  1.4236108831792010e-05  7.6015847242402790e-06  6.1695500161972030e-06  -6.3477400170384096e-06  -1.4111972182327962e-05  -1.1059756572657229e-05  -1.5658363142039888e-05  -1.0496784140295118e-05  -3.1139128335616144e-06  -3.4399108624921538e-06  -3.3433477207821330e-06  6.1297816239648536e-06  4.6743673931223406e-06  4.1141421353297323e-06  6.6086445376799936e-06  2.9009246480809412e-05  2.7011387008988830e-05  1.9352024370070635e-05  1.2627138689073666e-06  5.0499953925340612e-06  2.8503713158445046e-06  -2.4143261540053614e-06  -3.2116030786751384e-06  -8.0467254515562074e-07  1.5802278901870912e-06  6.8383574631864379e-06  5.7674797780281049e-06  -5.7086811153932274e-17  -4.8393633282173154e-06  -6.4796029426264262e-06  -2.3193693324706186e-06  4.3859563788584526e-06  1.3393633469021974e-05  1.3073118024387601e-05  1.2961880050267552e-05  7.9116802295806328e-06  6.7378821713184312e-06  -5.7967154381589349e-06  -1.5279944626500502e-05  -1.0592978257193995e-05  -1.6762536181950090e-05  -1.0053766141969414e-05  -3.3716347406179273e-06  -3.1413045192424453e-06  -3.6513332319593258e-06  6.3798370794079766e-06  4.2559796484013550e-06  4.5227234023385996e-06  2.1069106373470512e-05  2.9675905022154525e-05  2.5247206132885881e-05  -5.9969806788900791e-07  1.3517560375249084e-06  5.2560025515703392e-06  2.8097168063877638e-06  -2.2257145584318917e-06  -2.9917347887565568e-06  -8.2896165933675750e-07  1.7185522308521095e-06  7.5174844025731173e-06  6.3402563418027746e-06  -6.2083872376919057e-17  -4.9854399517466353e-06  -6.0360054047468739e-06  -2.1381759382824646e-06  4.4053372499049208e-06  1.4502152860716521e-05  1.4380484080676131e-05  1.1872559155728857e-05  8.0934977478305642e-06  7.2658311180128931e-06  -5.2778698928710103e-06  -1.6498165758447248e-05  -1.0513562381786304e-05  -1.7718385916083766e-05  -9.9783927559467975e-06  -3.6404443986780111e-06  -2.8601363519260579e-06  -3.9374346336800704e-06  6.5264514661067609e-06  3.8983056427975657e-06  4.9750145120164103e-06  2.2812883596782348e-05  2.9807038311850231e-05  -1.8460994313019054e-06  -6.4198667958121401e-07  1.4288371924919652e-06  5.3767902113481975e-06  2.7183444890511936e-06  -2.0325082481586398e-06  -2.8654682732293510e-06  -8.8180797407237874e-07  1.8892240804881929e-06  8.2692640406264467e-06  6.9743082882457029e-06  -6.8249509441022433e-17  -5.3032618025139379e-06  -5.7812550929795904e-06  -1.9525685421383478e-06  4.3425044449679511e-06  1.5658363141937529e-05  1.5705198441982959e-05  1.1059756572539112e-05  8.1292616776593415e-06  7.7085077135753136e-06  -4.8343158767356380e-06  -1.7661558743601512e-05  -1.0830915221371911e-05  -1.8441181495397987e-05  -1.0279591451556018e-05  -3.8971558136483438e-06  -2.6197695010294218e-06  -4.1773260006244421e-06  6.5552908578675514e-06  3.6314252798557540e-06  5.4333073716172904e-06  2.4631681868475262e-05  -4.3028840889562567e-17  -1.9513695188018135e-06  -6.7859467197175897e-07  1.4871245111667115e-06  5.4005494256970592e-06  2.5830302872119670e-06  -1.8505849052641331e-06  -2.8439857717225711e-06  -9.5899652856136193e-07  2.0781543288761918e-06  9.0310195399963168e-06  7.6167738893887950e-06  -7.5074743622729115e-17  -5.7674797781376085e-06  -5.7379128503149865e-06  -1.7778003478452729e-06  4.2012856953491235e-06  1.6762536181840504e-05  1.6935784368576857e-05  1.0592978257080855e-05  8.0133149783947300e-06  8.0277562272186846e-06  -4.5033556868535885e-06  -1.8668673421608074e-05  -1.1521386183709782e-05  -1.8864976410737658e-05  -1.0934915517613750e-05  -4.1193832443854920e-06  -2.4404184959202181e-06  -4.3503303182246651e-06  6.4617935185239222e-06  3.4781605525784490e-06  5.8590359360203856e-06  2.0570629888589136e-06  -4.4017682303357459e-17  -2.0309727777261011e-06  -7.0627694683417386e-07  1.5212999682255103e-06  5.3235220270286419e-06  2.4143261538930211e-06  -1.6950611080522836e-06  -2.9298317416823627e-06  -1.0542358284707957e-06  2.2695916177066527e-06  9.7386480102616583e-06  8.2135886822075653e-06  -8.1990546351657980e-17  -6.3402563419231541e-06  -5.9111122731382976e-06  -1.6283933900802201e-06  3.9921534007284551e-06  1.7718385915967943e-05  1.7967610631215232e-05  1.0513562381674020e-05  7.7527210432838447e-06  8.1954259461968507e-06  -4.3132910351018274e-06  -1.9430234586643461e-05  -1.2529904105273635e-05  -1.8948337858852754e-05  -1.1892097066296911e-05  -4.2874274450618192e-06  -2.3374203488030198e-06  -4.4411924023828488e-06  6.2516552417425594e-06  3.4520846786943583e-06  5.6666375639698215e-07  1.9901670612081231e-06  -4.4212189715377742e-17  -2.0776463564557751e-06  -7.2250782547742417e-07  1.5280223603243679e-06  5.1504004715408995e-06  2.2257145583283288e-06  -1.5790161990130571e-06  -3.1166085468572090e-06  -1.1596637864296240e-06  2.4474262063100840e-06  1.0331982960736312e-05  8.7140081684485377e-06  -8.8414942250049127e-17  -6.9743082883781179e-06  -6.2879457443917065e-06  -1.5169125933500856e-06  3.7314159316865743e-06  1.8441181495277430e-05  1.8711740779471619e-05  1.0830915221256240e-05  7.3668048121808877e-06  -5.7461689832416712e-06  -4.2809541629659781e-06  -1.9876758830425322e-05  -1.3774266581443166e-05  -1.8678079953719436e-05  -1.3073118024473065e-05  -4.3859563788808609e-06  -2.3198966384083646e-06  4.6336076381846040e-06  5.9404593125225396e-06  -1.3921922747413630e-07  5.1747370499336618e-07  1.8911001958793303e-06  -4.3581596474807454e-17  -2.0868271582322659e-06  -7.2570047715611890e-07  1.5062283578543739e-06  4.8940229845204149e-06  2.0325082480640677e-06  -1.5123736362565989e-06  -3.3894190857877328e-06  -1.2664907377027795e-06  2.5965376132919600e-06  1.0759882928637337e-05  9.0748995703931919e-06  -9.3801693606692823e-17  -7.6167738895334106e-06  -6.8383574632529740e-06  -1.4528911205104893e-06  3.4399108624745791e-06  1.8864976410614347e-05  1.9102558864785264e-05  1.1521386183586739e-05  6.8856604650465564e-06  -6.2217486502983946e-06  -4.4101751549017564e-06  -1.9964591190448572e-05  -1.5151750403225753e-05  -1.8070666621212364e-05  -1.4380484080770145e-05  -4.4053372499274290e-06  -2.3899229300694530e-06  5.0171065544653629e-06  -3.5960278003880988e-07  -1.3817549675412543e-07  4.7115628101356830e-07  1.7675877379942696e-06  -4.2164317888553799e-17  -2.0570629889230471e-06  -7.1534989695370637e-07  1.4572456364703811e-06  4.5743821695698158e-06  1.8505849051780255e-06  -1.5010353257880329e-06  -3.7260270830182896e-06  -1.3657270309426235e-06  2.7040734431131750e-06  1.0984616527393816e-05  9.2644401864328106e-06  -9.7686498860040370e-17  -8.2135886823635125e-06  -7.5174844026462620e-06  -1.4419987522448366e-06  3.1413045192263936e-06  1.8948337858728877e-05  1.4111972182177225e-05  1.2529904105139810e-05  6.3477400168357654e-06  -6.7177887779772242e-06  -4.6913238686572527e-06  -1.9679838584063507e-05  -1.6547512969039593e-05  -1.7171141987597761e-05  -1.5705198442085629e-05  -4.3425044449901425e-06  -2.5422805426728852e-06  -3.6264526673821422e-07  -3.9272899223102654e-07  -1.4234633672859887e-07  4.3156014376258130e-07  1.6295005358877474e-06  -4.0065455494856035e-17  -1.9901670612701699e-06  -6.9208663510378019e-07  1.3847066220162168e-06  4.2170230288696112e-06  1.6950611079734115e-06  -1.5463442140277026e-06  -4.0986452544493604e-06  -1.4489350470257995e-06  2.7605513955410095e-06  6.4957012843710194e-06  -6.9922792113431533e-17  -9.9726803441822444e-17  -8.7140081686139870e-06  -8.2692640407069047e-06  -1.4855256161265393e-06  2.8601363519114441e-06  1.8678079953597314e-05  1.5279944626337306e-05  1.3774266581296050e-05  5.7967154379738760e-06  -7.1915037626897012e-06  -5.1019762087455191e-06  -1.9039847944384997e-05  -1.7844098724071867e-05  -1.6049651991349593e-05  -1.6935784368687578e-05  -4.2012856953705932e-06  4.5188061243688540e-07  -3.9155781440378448e-07  -4.2350140001627235e-07  -1.5142091723240748e-07  4.0201527520888749e-07  1.4880494297993870e-06  -3.7448680934080744e-17  -1.8911001959382895e-06  -6.5763583204704561e-07  1.2942679880889333e-06  3.8509583613862590e-06  1.5790161989395861e-06  -1.6449236743727034e-06  -4.4762079428825751e-06  -1.5089428173124072e-06  7.7017916084996484e-06  7.0333157302967471e-06  -7.5709927557927624e-17  -6.4957012844943499e-06  -9.0748995705654937e-06  -9.0310195400841897e-06  -1.5802278901984929e-06  2.6197695010160349e-06  1.8070666621094220e-05  1.6498165758271072e-05  1.5151750403063927e-05  5.2778698927025236e-06  -7.6015847244829497e-06  -5.6086606729786143e-06  -1.8092079242474103e-05  -1.8931264768224600e-05  -1.4795823685896601e-05  -1.7967610631332698e-05  1.3817549674904614e-07  4.2938682452854705e-07  -4.1916910290877825e-07  -4.4930356289759106e-07  -1.6467546024429244e-07  3.8504817365292520e-07  1.3548588624761689e-06  -3.4523121166034955e-17  -1.7675877380493755e-06  -6.1468399999372010e-07  1.1931573945893207e-06  3.5062713378105168e-06  1.5123736361862284e-06  -1.7889111233443481e-06  -4.8269426705823067e-06  -1.5404589733804085e-06  8.3392276984567786e-06  7.5940595065170612e-06  -8.1746038021918888e-17  -7.0333157304302853e-06  -9.2644401866087105e-06  -9.7386480103564142e-06  -1.7185522308645088e-06  2.4404184959077481e-06  1.7171141987485482e-05  1.7661558743412895e-05  1.6547512968862861e-05  4.8343158765813103e-06  -7.9116802298331994e-06  -6.1695500163941568e-06  -1.6910440543288084e-05  -1.9715304735908772e-05  -1.3511451217299515e-05  -5.3290577465616292e-08  1.4234633672336619e-07  4.0134250292330121e-07  -4.4307137349739285e-07  -4.6791150881390864e-07  -1.8102961281818959e-07  3.8216145595726583e-07  1.2409960538154950e-06  -3.1526292648947237e-17  -1.6295005359385497e-06  -5.6666375640734316e-07  1.0895836740012400e-06  3.2116030786238176e-06  1.5010353257181900e-06  -1.9665704139813034e-06  -5.1210280289786816e-06  1.9355424488408718e-06  9.0040876606294662e-06  8.1295660402783813e-06  -8.7510482905748428e-17  -7.5940595066612423e-06  -7.7017916085745905e-06  -1.0331982960836841e-05  -1.8892240805018236e-06  2.3374203487910766e-06  1.6049651991244659e-05  1.8668673421408702e-05  1.7844098723881287e-05  4.5033556867098182e-06  -8.0934977480889329e-06  -6.7378821715335292e-06  -1.5589365854423653e-05  -2.0127083508342177e-05  -4.7902486715749131e-08  1.8546794089317840e-07  1.5142091722684133e-07  3.6998888911174920e-07  -4.6114582066212529e-07  -4.7768442530126679e-07  -1.9913332537857876e-07  3.9369703436771159e-07  1.1560367131174277e-06  -2.8704474556468181e-17  -1.4880494298457792e-06  -5.1747370500282806e-07  9.9205850798178418e-07  2.9917347887087498e-06  1.5463442139557497e-06  -2.1632356167083240e-06  -5.3331158477011461e-06  2.0957369429600814e-06  9.6390244515104037e-06  8.5931381068126738e-06  -9.2500591258769660e-17  -8.1295660404327378e-06  -8.3392276985379108e-06  -1.0759882928742031e-05  -2.0781543288911864e-06  2.3198966383965100e-06  1.4795823685799880e-05  1.9430234586435941e-05  1.8931264768022406e-05  4.3132910349641303e-06  -8.1292616779188588e-06  -7.2658311182448454e-06  -1.4236108831944061e-05  -6.7425811683160534e-18  -4.4773856151403131e-08  2.0081813018223613e-07  1.6467546023823907e-07  3.3787147862145527e-07  -4.7174336583977673e-07  -1.8546794089999606e-07  -2.1747726807646503e-07  4.1879522456063671e-07  1.1072460488729110e-06  -2.6292140560176502e-17  -1.3548588625184094e-06  -4.7115628102218385e-07  9.0868556693013972e-07  2.8654682731835626e-06  1.6449236742961645e-06  -2.3625105001035699e-06  -5.4445046355706877e-06  2.2628233489204552e-06  1.0188670332018951e-05  8.9436825788349633e-06  -9.6274017278636399e-17  -8.5931381069758259e-06  -9.0040876607170613e-06  -1.0984616527500697e-05  -2.2695916177230276e-06  2.3899229300572414e-06  1.3511451217211195e-05  1.9876758830213036e-05  1.9715304735698210e-05  4.2809541628293127e-06  -8.0133149786505441e-06  -7.7085077138213987e-06  -9.7297855377461351e-18  -7.4168672670709519e-18  -4.1276040235072572e-08  2.1682871764482082e-07  1.8102961281153506e-07  3.0762967816863511e-07  -4.7382792768914616e-07  -2.0081813018961824e-07  -2.3451777007569965e-07  4.5545422398137834e-07  1.0989449920664151e-06  -2.4492164709596065e-17  -1.2409960538541847e-06  -4.3156014377047236e-07  8.4647640322581128e-07  2.8439857716771232e-06  1.7889111232611097e-06  -2.5476257779268732e-06  -1.0800826742409824e-06  2.4223897425014758e-06  1.0604302202210258e-05  9.1492164380547905e-06  -9.8486480672708709e-17  -8.9436825790047680e-06  -9.6390244516041905e-06  -1.9355424488548373e-06  -2.4474262063277421e-06  2.5422805426598943e-06  1.2302084231853065e-05  1.9964591190235361e-05  2.0127083508127214e-05  4.4101751547609642e-06  -7.7527210435313375e-06  3.0505230557215107e-08  -9.7727799732872283e-18  -8.1001009141077816e-18  -3.7693014996594921e-08  2.3211872095678418e-07  1.9913332537125872e-07  2.8177637333093185e-07  -4.6706977591431409e-07  -2.1682871765279161e-07  -2.4880595354291921e-07  5.0068602632987386e-07  1.1321167469023246e-06  -2.3458470042802300e-17  -1.1560367131534691e-06  -4.0201527521623820e-07  8.1075076794791050e-07  2.9298317416355442e-06  1.9665704138897989e-06  -2.7028419242729998e-06  -1.1694753391812820e-06  2.5605216198143769e-06  1.0847998592007386e-05  9.1896454274576237e-06  -9.8921677381672572e-17  -9.1492164382284949e-06  -1.0188670332118082e-05  -2.0957369429752014e-06  -2.5965376133106942e-06  2.7648176096441372e-06  1.1268212806707761e-05  1.9679838583853310e-05  5.7461689830582377e-06  4.6913238685074888e-06  5.2627791585495467e-08  3.3175488391457952e-08  -9.6333919666671392e-18  -8.7347869529830004e-18  -3.4319233218259859e-08  2.4535482170584058e-07  2.1747726806847060e-07  2.6248579232635475e-07  -4.5188061247757951e-07  -2.3211872096531671e-07  -2.5911027362737786e-07  5.5075670682557216e-07  1.2042892017443689e-06  -2.3282601189969610e-17  -1.1072460489074318e-06  -3.8504817365996595e-07  8.0467254514684749e-07  3.1166085468074047e-06  2.1632356166076681e-06  -2.8147803563274350e-06  -1.2627138689211330e-06  2.6649743457176058e-06  1.0895934240167813e-05  9.0585745999980808e-06  -9.7510769179560539e-17  -9.1896454276320990e-06  -1.0604302202313438e-05  -2.2628233489367796e-06  -2.7040734431326856e-06  3.0393955519801761e-06  1.0496784140226498e-05  1.9039847944181655e-05  6.2217486500997679e-06  -6.7632992651482362e-19  5.2860345754774356e-08  3.6470193006599664e-08  -9.3201129394695518e-18  -9.2669608624100431e-18  -3.1435032956861390e-08  2.5536371198130450e-07  2.3451777006707889e-07  2.5140754886139116e-07  -4.2938682456721580e-07  -2.4535482171485978e-07  -2.6452211543395328e-07  6.0149180830232164e-07  1.3097059652604007e-06  -2.3985388630825668e-17  -1.0989449921006768e-06  -3.8216145596425369e-07  8.2896165932771987e-07  3.3894190857335701e-06  2.3625104999936428e-06  -2.8735705609590220e-06  -1.3517560375396449e-06  2.7262178499642090e-06  1.0740526816880705e-05  8.7639887004204938e-06  -9.4339707624548342e-17  -9.0585746001700827e-06  -1.0847998592112933e-05  -2.4223897425189522e-06  -2.7605513955609271e-06  3.3433477207650492e-06  1.0053766141903694e-05  1.8092079242280867e-05  -8.8833874037603108e-19  -7.4396572595671081e-19  5.2106404885938011e-08  4.0117363659704313e-08  -8.8561748151680447e-18  -9.6507528479983281e-18  -2.9282971581141674e-08  2.6123219946010036e-07  2.4880595353377327e-07  2.4952273893427094e-07  -4.0134250295944458e-07  -2.5536371199069174e-07  5.1296141495957684e-07  6.4862189436858208e-07  1.4397747147330729e-06  -2.5514457415086383e-17  -1.1321167469376209e-06  -3.9369703437491041e-07  8.8180797406276471e-07  3.7260270829587479e-06  2.5476257778083318e-06  -3.8173786048974254e-06  -1.4288371925075419e-06  2.7382645900661916e-06  1.0391243635585408e-05  8.3277334205242622e-06  -8.9643650045982477e-17  -8.7639887005868900e-06  -1.0895934240273841e-05  -2.5605216198328507e-06  3.1139128335457046e-06  3.6513332319406687e-06  9.9783927558815607e-06  -9.8825943506086600e-19  -8.3031912750864126e-19  -8.1249902956220239e-19  5.0411898538650038e-08  4.3812931032793765e-08  -8.2777560083461321e-18  -9.8523208792329082e-18  -2.8047080351835965e-08  2.6238654463218793e-07  2.5911027361785308e-07  2.5705460557151591e-07  -3.6998888914506873e-07  -2.6123219946970317e-07  5.5541648713912738e-07  6.8813970414735637e-07  1.5837581613165973e-06  -2.7747850789095024e-17  -1.2042892017819151e-06  -4.1879522456829426e-07  9.5899652855090658e-07  4.0986452543838644e-06  2.7028419241472366e-06  -4.1333226105890821e-06  -1.4871245111829254e-06  2.6992090455997260e-06  9.8739865902294838e-06  7.7838284356790500e-06  -8.3788800273826768e-17  -8.3277334206823846e-06  -1.0740526816985205e-05  -2.6649743457368330e-06  3.3716347406006953e-06  3.9374346336599517e-06  -5.1622616936004952e-19  -6.9291160096402875e-19  -7.6545307152247506e-19  -8.7616265500724343e-19  4.7902486710446367e-08  4.7245907478838444e-08  -7.6310824982605627e-18  -3.7364337782136652e-08  -2.7836810550020956e-08  2.5864415633324101e-07  2.6452211542422955e-07  2.7344183945292587e-07  -3.3787147865188276e-07  -2.6238654464183320e-07  5.9969806787804201e-07  7.1663906950975226e-07  1.7296522194973110e-06  -3.0503529046981173e-17  -1.3097059653012329e-06  -4.5545422398970626e-07  1.0542358284593019e-06  4.4762079428110466e-06  2.8147803561964630e-06  -4.4628592072492674e-06  -1.5212999682420958e-06  2.6114304534969338e-06  9.2290919645820518e-06  7.1757414551822543e-06  -7.7243065231104680e-17  -7.7838284358268370e-06  -1.0391243635686511e-05  -2.7262178499838797e-06  3.6404443986594086e-06  -9.3487510822736995e-19  -5.3180850337450566e-19  -7.5026018737826048e-19  -6.9900683156060919e-19  -9.2954356835052138e-19  4.4773856146446704e-08  5.0124402331979100e-08  -6.9686555543857517e-18  -4.0456784136228898e-08  -2.8677067215864309e-08  2.5023301828687214e-07  3.3492529200178022e-07  2.9737741380105221e-07  -3.0762967819633885e-07  -2.5864415634274847e-07  6.4198667956947583e-07  7.3160697187156895e-07  1.8651796811259043e-06  -3.3554008542281427e-17  -1.43977471477796