<?xml version="1.0"?>
<VTKFile type="UnstructuredGrid"  version="0.1"  >
<UnstructuredGrid>
<Piece  NumberOfPoints="1089" NumberOfCells="2048">
<Points>
<DataArray  type="Float64"  NumberOfComponents="3"  format="ascii">0 0 0  0.03125 0 0  0.0625 0 0  0.09375 0 0  0.125 0 0  0.15625 0 0  0.1875 0 0  0.21875 0 0  0.25 0 0  0.28125 0 0  0.3125 0 0  0.34375 0 0  0.375 0 0  0.40625 0 0  0.4375 0 0  0.46875 0 0  0.5 0 0  0.53125 0 0  0.5625 0 0  0.59375 0 0  0.625 0 0  0.65625 0 0  0.6875 0 0  0.71875 0 0  0.75 0 0  0.78125 0 0  0.8125 0 0  0.84375 0 0  0.875 0 0  0.90625 0 0  0.9375 0 0  0.96875 0 0  1 0 0  0 0.03125 0  0.03125 0.03125 0  0.0625 0.03125 0  0.09375 0.03125 0  0.125 0.03125 0  0.15625 0.03125 0  0.1875 0.03125 0  0.21875 0.03125 0  0.25 0.03125 0  0.28125 0.03125 0  0.3125 0.03125 0  0.34375 0.03125 0  0.375 0.03125 0  0.40625 0.03125 0  0.4375 0.03125 0  0.46875 0.03125 0  0.5 0.03125 0  0.53125 0.03125 0  0.5625 0.03125 0  0.59375 0.03125 0  0.625 0.03125 0  0.65625 0.03125 0  0.6875 0.03125 0  0.71875 0.03125 0  0.75 0.03125 0  0.78125 0.03125 0  0.8125 0.03125 0  0.84375 0.03125 0  0.875 0.03125 0  0.90625 0.03125 0  0.9375 0.03125 0  0.96875 0.03125 0  1 0.03125 0  0 0.0625 0  0.03125 0.0625 0  0.0625 0.0625 0  0.09375 0.0625 0  0.125 0.0625 0  0.15625 0.0625 0  0.1875 0.0625 0  0.21875 0.0625 0  0.25 0.0625 0  0.28125 0.0625 0  0.3125 0.0625 0  0.34375 0.0625 0  0.375 0.0625 0  0.40625 0.0625 0  0.4375 0.0625 0  0.46875 0.0625 0  0.5 0.0625 0  0.53125 0.0625 0  0.5625 0.0625 0  0.59375 0.0625 0  0.625 0.0625 0  0.65625 0.0625 0  0.6875 0.0625 0  0.71875 0.0625 0  0.75 0.0625 0  0.78125 0.0625 0  0.8125 0.0625 0  0.84375 0.0625 0  0.875 0.0625 0  0.90625 0.0625 0  0.9375 0.0625 0  0.96875 0.0625 0  1 0.0625 0  0 0.09375 0  0.03125 0.09375 0  0.0625 0.09375 0  0.09375 0.09375 0  0.125 0.09375 0  0.15625 0.09375 0  0.1875 0.09375 0  0.21875 0.09375 0  0.25 0.09375 0  0.28125 0.09375 0  0.3125 0.09375 0  0.34375 0.09375 0  0.375 0.09375 0  0.40625 0.09375 0  0.4375 0.09375 0  0.46875 0.09375 0  0.5 0.09375 0  0.53125 0.09375 0  0.5625 0.09375 0  0.59375 0.09375 0  0.625 0.09375 0  0.65625 0.09375 0  0.6875 0.09375 0  0.71875 0.09375 0  0.75 0.09375 0  0.78125 0.09375 0  0.8125 0.09375 0  0.84375 0.09375 0  0.875 0.09375 0  0.90625 0.09375 0  0.9375 0.09375 0  0.96875 0.09375 0  1 0.09375 0  0 0.125 0  0.03125 0.125 0  0.0625 0.125 0  0.09375 0.125 0  0.125 0.125 0  0.15625 0.125 0  0.1875 0.125 0  0.21875 0.125 0  0.25 0.125 0  0.28125 0.125 0  0.3125 0.125 0  0.34375 0.125 0  0.375 0.125 0  0.40625 0.125 0  0.4375 0.125 0  0.46875 0.125 0  0.5 0.125 0  0.53125 0.125 0  0.5625 0.125 0  0.59375 0.125 0  0.625 0.125 0  0.65625 0.125 0  0.6875 0.125 0  0.71875 0.125 0  0.75 0.125 0  0.78125 0.125 0  0.8125 0.125 0  0.84375 0.125 0  0.875 0.125 0  0.90625 0.125 0  0.9375 0.125 0  0.96875 0.125 0  1 0.125 0  0 0.15625 0  0.03125 0.15625 0  0.0625 0.15625 0  0.09375 0.15625 0  0.125 0.15625 0  0.15625 0.15625 0  0.1875 0.15625 0  0.21875 0.15625 0  0.25 0.15625 0  0.28125 0.15625 0  0.3125 0.15625 0  0.34375 0.15625 0  0.375 0.15625 0  0.40625 0.15625 0  0.4375 0.15625 0  0.46875 0.15625 0  0.5 0.15625 0  0.53125 0.15625 0  0.5625 0.15625 0  0.59375 0.15625 0  0.625 0.15625 0  0.65625 0.15625 0  0.6875 0.15625 0  0.71875 0.15625 0  0.75 0.15625 0  0.78125 0.15625 0  0.8125 0.15625 0  0.84375 0.15625 0  0.875 0.15625 0  0.90625 0.15625 0  0.9375 0.15625 0  0.96875 0.15625 0  1 0.15625 0  0 0.1875 0  0.03125 0.1875 0  0.0625 0.1875 0  0.09375 0.1875 0  0.125 0.1875 0  0.15625 0.1875 0  0.1875 0.1875 0  0.21875 0.1875 0  0.25 0.1875 0  0.28125 0.1875 0  0.3125 0.1875 0  0.34375 0.1875 0  0.375 0.1875 0  0.40625 0.1875 0  0.4375 0.1875 0  0.46875 0.1875 0  0.5 0.1875 0  0.53125 0.1875 0  0.5625 0.1875 0  0.59375 0.1875 0  0.625 0.1875 0  0.65625 0.1875 0  0.6875 0.1875 0  0.71875 0.1875 0  0.75 0.1875 0  0.78125 0.1875 0  0.8125 0.1875 0  0.84375 0.1875 0  0.875 0.1875 0  0.90625 0.1875 0  0.9375 0.1875 0  0.96875 0.1875 0  1 0.1875 0  0 0.21875 0  0.03125 0.21875 0  0.0625 0.21875 0  0.09375 0.21875 0  0.125 0.21875 0  0.15625 0.21875 0  0.1875 0.21875 0  0.21875 0.21875 0  0.25 0.21875 0  0.28125 0.21875 0  0.3125 0.21875 0  0.34375 0.21875 0  0.375 0.21875 0  0.40625 0.21875 0  0.4375 0.21875 0  0.46875 0.21875 0  0.5 0.21875 0  0.53125 0.21875 0  0.5625 0.21875 0  0.59375 0.21875 0  0.625 0.21875 0  0.65625 0.21875 0  0.6875 0.21875 0  0.71875 0.21875 0  0.75 0.21875 0  0.78125 0.21875 0  0.8125 0.21875 0  0.84375 0.21875 0  0.875 0.21875 0  0.90625 0.21875 0  0.9375 0.21875 0  0.96875 0.21875 0  1 0.21875 0  0 0.25 0  0.03125 0.25 0  0.0625 0.25 0  0.09375 0.25 0  0.125 0.25 0  0.15625 0.25 0  0.1875 0.25 0  0.21875 0.25 0  0.25 0.25 0  0.28125 0.25 0  0.3125 0.25 0  0.34375 0.25 0  0.375 0.25 0  0.40625 0.25 0  0.4375 0.25 0  0.46875 0.25 0  0.5 0.25 0  0.53125 0.25 0  0.5625 0.25 0  0.59375 0.25 0  0.625 0.25 0  0.65625 0.25 0  0.6875 0.25 0  0.71875 0.25 0  0.75 0.25 0  0.78125 0.25 0  0.8125 0.25 0  0.84375 0.25 0  0.875 0.25 0  0.90625 0.25 0  0.9375 0.25 0  0.96875 0.25 0  1 0.25 0  0 0.28125 0  0.03125 0.28125 0  0.0625 0.28125 0  0.09375 0.28125 0  0.125 0.28125 0  0.15625 0.28125 0  0.1875 0.28125 0  0.21875 0.28125 0  0.25 0.28125 0  0.28125 0.28125 0  0.3125 0.28125 0  0.34375 0.28125 0  0.375 0.28125 0  0.40625 0.28125 0  0.4375 0.28125 0  0.46875 0.28125 0  0.5 0.28125 0  0.53125 0.28125 0  0.5625 0.28125 0  0.59375 0.28125 0  0.625 0.28125 0  0.65625 0.28125 0  0.6875 0.28125 0  0.71875 0.28125 0  0.75 0.28125 0  0.78125 0.28125 0  0.8125 0.28125 0  0.84375 0.28125 0  0.875 0.28125 0  0.90625 0.28125 0  0.9375 0.28125 0  0.96875 0.28125 0  1 0.28125 0  0 0.3125 0  0.03125 0.3125 0  0.0625 0.3125 0  0.09375 0.3125 0  0.125 0.3125 0  0.15625 0.3125 0  0.1875 0.3125 0  0.21875 0.3125 0  0.25 0.3125 0  0.28125 0.3125 0  0.3125 0.3125 0  0.34375 0.3125 0  0.375 0.3125 0  0.40625 0.3125 0  0.4375 0.3125 0  0.46875 0.3125 0  0.5 0.3125 0  0.53125 0.3125 0  0.5625 0.3125 0  0.59375 0.3125 0  0.625 0.3125 0  0.65625 0.3125 0  0.6875 0.3125 0  0.71875 0.3125 0  0.75 0.3125 0  0.78125 0.3125 0  0.8125 0.3125 0  0.84375 0.3125 0  0.875 0.3125 0  0.90625 0.3125 0  0.9375 0.3125 0  0.96875 0.3125 0  1 0.3125 0  0 0.34375 0  0.03125 0.34375 0  0.0625 0.34375 0  0.09375 0.34375 0  0.125 0.34375 0  0.15625 0.34375 0  0.1875 0.34375 0  0.21875 0.34375 0  0.25 0.34375 0  0.28125 0.34375 0  0.3125 0.34375 0  0.34375 0.34375 0  0.375 0.34375 0  0.40625 0.34375 0  0.4375 0.34375 0  0.46875 0.34375 0  0.5 0.34375 0  0.53125 0.34375 0  0.5625 0.34375 0  0.59375 0.34375 0  0.625 0.34375 0  0.65625 0.34375 0  0.6875 0.34375 0  0.71875 0.34375 0  0.75 0.34375 0  0.78125 0.34375 0  0.8125 0.34375 0  0.84375 0.34375 0  0.875 0.34375 0  0.90625 0.34375 0  0.9375 0.34375 0  0.96875 0.34375 0  1 0.34375 0  0 0.375 0  0.03125 0.375 0  0.0625 0.375 0  0.09375 0.375 0  0.125 0.375 0  0.15625 0.375 0  0.1875 0.375 0  0.21875 0.375 0  0.25 0.375 0  0.28125 0.375 0  0.3125 0.375 0  0.34375 0.375 0  0.375 0.375 0  0.40625 0.375 0  0.4375 0.375 0  0.46875 0.375 0  0.5 0.375 0  0.53125 0.375 0  0.5625 0.375 0  0.59375 0.375 0  0.625 0.375 0  0.65625 0.375 0  0.6875 0.375 0  0.71875 0.375 0  0.75 0.375 0  0.78125 0.375 0  0.8125 0.375 0  0.84375 0.375 0  0.875 0.375 0  0.90625 0.375 0  0.9375 0.375 0  0.96875 0.375 0  1 0.375 0  0 0.40625 0  0.03125 0.40625 0  0.0625 0.40625 0  0.09375 0.40625 0  0.125 0.40625 0  0.15625 0.40625 0  0.1875 0.40625 0  0.21875 0.40625 0  0.25 0.40625 0  0.28125 0.40625 0  0.3125 0.40625 0  0.34375 0.40625 0  0.375 0.40625 0  0.40625 0.40625 0  0.4375 0.40625 0  0.46875 0.40625 0  0.5 0.40625 0  0.53125 0.40625 0  0.5625 0.40625 0  0.59375 0.40625 0  0.625 0.40625 0  0.65625 0.40625 0  0.6875 0.40625 0  0.71875 0.40625 0  0.75 0.40625 0  0.78125 0.40625 0  0.8125 0.40625 0  0.84375 0.40625 0  0.875 0.40625 0  0.90625 0.40625 0  0.9375 0.40625 0  0.96875 0.40625 0  1 0.40625 0  0 0.4375 0  0.03125 0.4375 0  0.0625 0.4375 0  0.09375 0.4375 0  0.125 0.4375 0  0.15625 0.4375 0  0.1875 0.4375 0  0.21875 0.4375 0  0.25 0.4375 0  0.28125 0.4375 0  0.3125 0.4375 0  0.34375 0.4375 0  0.375 0.4375 0  0.40625 0.4375 0  0.4375 0.4375 0  0.46875 0.4375 0  0.5 0.4375 0  0.53125 0.4375 0  0.5625 0.4375 0  0.59375 0.4375 0  0.625 0.4375 0  0.65625 0.4375 0  0.6875 0.4375 0  0.71875 0.4375 0  0.75 0.4375 0  0.78125 0.4375 0  0.8125 0.4375 0  0.84375 0.4375 0  0.875 0.4375 0  0.90625 0.4375 0  0.9375 0.4375 0  0.96875 0.4375 0  1 0.4375 0  0 0.46875 0  0.03125 0.46875 0  0.0625 0.46875 0  0.09375 0.46875 0  0.125 0.46875 0  0.15625 0.46875 0  0.1875 0.46875 0  0.21875 0.46875 0  0.25 0.46875 0  0.28125 0.46875 0  0.3125 0.46875 0  0.34375 0.46875 0  0.375 0.46875 0  0.40625 0.46875 0  0.4375 0.46875 0  0.46875 0.46875 0  0.5 0.46875 0  0.53125 0.46875 0  0.5625 0.46875 0  0.59375 0.46875 0  0.625 0.46875 0  0.65625 0.46875 0  0.6875 0.46875 0  0.71875 0.46875 0  0.75 0.46875 0  0.78125 0.46875 0  0.8125 0.46875 0  0.84375 0.46875 0  0.875 0.46875 0  0.90625 0.46875 0  0.9375 0.46875 0  0.96875 0.46875 0  1 0.46875 0  0 0.5 0  0.03125 0.5 0  0.0625 0.5 0  0.09375 0.5 0  0.125 0.5 0  0.15625 0.5 0  0.1875 0.5 0  0.21875 0.5 0  0.25 0.5 0  0.28125 0.5 0  0.3125 0.5 0  0.34375 0.5 0  0.375 0.5 0  0.40625 0.5 0  0.4375 0.5 0  0.46875 0.5 0  0.5 0.5 0  0.53125 0.5 0  0.5625 0.5 0  0.59375 0.5 0  0.625 0.5 0  0.65625 0.5 0  0.6875 0.5 0  0.71875 0.5 0  0.75 0.5 0  0.78125 0.5 0  0.8125 0.5 0  0.84375 0.5 0  0.875 0.5 0  0.90625 0.5 0  0.9375 0.5 0  0.96875 0.5 0  1 0.5 0  0 0.53125 0  0.03125 0.53125 0  0.0625 0.53125 0  0.09375 0.53125 0  0.125 0.53125 0  0.15625 0.53125 0  0.1875 0.53125 0  0.21875 0.53125 0  0.25 0.53125 0  0.28125 0.53125 0  0.3125 0.53125 0  0.34375 0.53125 0  0.375 0.53125 0  0.40625 0.53125 0  0.4375 0.53125 0  0.46875 0.53125 0  0.5 0.53125 0  0.53125 0.53125 0  0.5625 0.53125 0  0.59375 0.53125 0  0.625 0.53125 0  0.65625 0.53125 0  0.6875 0.53125 0  0.71875 0.53125 0  0.75 0.53125 0  0.78125 0.531
[...]
<PointData  Scalars="phi"> 
<DataArray  type="Float64"  Name="phi"  format="ascii">0.0000000000000000e+00  0.0000000000000000e+00  0.0000000000000000e+00  0.0000000000000000e+00  0.0000000000000000e+00  0.0000000000000000e+00  0.0000000000000000e+00  0.0000000000000000e+00  0.0000000000000000e+00  0.0000000000000000e+00  0.0000000000000000e+00  0.0000000000000000e+00  0.0000000000000000e+00  0.0000000000000000e+00  0.0000000000000000e+00  0.0000000000000000e+00  0.0000000000000000e+00  0.0000000000000000e+00  0.0000000000000000e+00  0.0000000000000000e+00  0.0000000000000000e+00  0.0000000000000000e+00  0.0000000000000000e+00  0.0000000000000000e+00  0.0000000000000000e+00  0.0000000000000000e+00  0.0000000000000000e+00  0.0000000000000000e+00  0.0000000000000000e+00  0.0000000000000000e+00  0.0000000000000000e+00  0.0000000000000000e+00  0.0000000000000000e+00  0.0000000000000000e+00  -1.0934748380826630e-07  -1.7858338505770205e-07  -2.2525850845494143e-07  -2.5632210831916258e-07  -2.7565862850831974e-07  -2.8569560245455134e-07  -2.8808936295711927e-07  -2.8405249942919426e-07  -2.7452645981265869e-07  -2.6028031084705138e-07  -2.4197112667629403e-07  -2.2018293974643516e-07  -1.9545299256887137e-07  -1.6829013051467429e-07  -1.3918820411817662e-07  -1.0863630494740517e-07  -7.7127093285493718e-08  -4.5164178028299666e-08  -1.3269380316028668e-08  1.8009287356879540e-08  4.8087965412579457e-08  7.6334355031993934e-08  1.0205036184788430e-07  1.2444709677359919e-07  1.4260736171637392e-07  1.5542677511786766e-07  1.6151623564868809e-07  1.5902893062030277e-07  1.4532588801273176e-07  1.1625695952190813e-07  6.4411615756835017e-08  0.0000000000000000e+00  0.0000000000000000e+00  -1.7858338505770205e-07  -2.9113972465493959e-07  -3.6671469943335929e-07  -4.1505824434251746e-07  -4.4242863318608741e-07  -4.5308278990971093e-07  -4.5008303323675069e-07  -4.3574778772810670e-07  -4.1191505230770949e-07  -3.8010385914473389e-07  -3.4161766777230523e-07  -2.9761322402074386e-07  -2.4914806284070555e-07  -1.9721440613446007e-07  -1.4276426192195003e-07  -8.6728890161808631e-08  -3.0034878608462966e-08  2.6381425655657006e-08  8.1559602581424574e-08  1.3449943805736702e-07  1.8414205307393120e-07  2.2934564568765010e-07  2.6885268922046562e-07  3.0124379164868907e-07  3.2487047687439815e-07  3.3775371704516390e-07  3.3742469810057411e-07  3.2066401820811163e-07  2.8305530054008085e-07  2.1819228593277868e-07  1.1625695952190982e-07  0.0000000000000000e+00  0.0000000000000000e+00  -2.2525850845493974e-07  -3.6671469943335590e-07  -4.6364872510428726e-07  -5.2585640992637968e-07  -5.6045225965749377e-07  -5.7268570206573278e-07  -5.6654002244174305e-07  -5.4513716249128758e-07  -5.1100682270774540e-07  -4.6626687467895027e-07  -4.1274656136248956e-07  -3.5207251050932854e-07  -2.8573023569630784e-07  -2.1510928695567580e-07  -1.4153747741513819e-07  -6.6307961139265006e-08  9.2980448762201764e-09  8.3990653134292242e-08  1.5645082009538270e-07  2.2530799283340458e-07  2.8911365450014171e-07  3.4630799040874332e-07  3.9517592358545822e-07  4.3378713191470240e-07  4.5991194956953359e-07  4.7090059871638475e-07  4.6350598564304528e-07  4.3361922252584909e-07  3.7587254675669203e-07  2.8305530054008085e-07  1.4532588801273345e-07  0.0000000000000000e+00  0.0000000000000000e+00  -2.5632210831916596e-07  -4.1505824434251068e-07  -5.2585640992637290e-07  -5.9771278073746288e-07  -6.3774950682357655e-07  -6.5157774250970777e-07  -6.4366306497220507e-07  -6.1762478957856485e-07  -5.7646324779029581e-07  -5.2272759533603780e-07  -4.5863894197178804e-07  -3.8618114566401317e-07  -3.0716855786675650e-07  -2.2329748602503197e-07  -1.3618631355342536e-07  -4.7407975915672671e-08  4.1482310359614548e-08  1.2892164459233258e-07  2.1331416597222840e-07  2.9300370963527916e-07  3.6624198544911056e-07  4.3114940408264845e-07  4.8566488602220853e-07  5.2747976657491441e-07  5.5394911467477183e-07  5.6197131580350149e-07  5.4782380701675064e-07  5.0694055449003027e-07  4.3361922252586264e-07  3.2066401820812518e-07  1.5902893062030615e-07  0.0000000000000000e+00  0.0000000000000000e+00  -2.7565862850832990e-07  -4.4242863318606708e-07  -5.6045225965746666e-07  -6.3774950682360366e-07  -6.8105315948038727e-07  -6.9593831508393562e-07  -6.8702046148209298e-07  -6.5815389695613878e-07  -6.1260390761983473e-07  -5.5318688973150722e-07  -4.8238105441602099e-07  -4.0241289590701350e-07  -3.1532473014246067e-07  -2.2302794066634255e-07  -1.2734577343600042e-07  -3.0048840765455054e-08  6.7114009233014589e-08  1.6238712643044310e-07  2.5397962418827278e-07  3.4003490955315362e-07  4.1859586060404410e-07  4.8756301884578918e-07  5.4464267337624096e-07  5.8728104819491598e-07  6.1258002887964948e-07  6.1718921813233053e-07  5.9716925081436715e-07  5.4782380701680485e-07  4.6350598564305883e-07  3.3742469810060121e-07  1.6151623564870165e-07  0.0000000000000000e+00  0.0000000000000000e+00  -2.8569560245455473e-07  -4.5308278990969061e-07  -5.7268570206562436e-07  -6.5157774250965356e-07  -6.9593831508393562e-07  -7.1107626665233644e-07  -7.0152669848268516e-07  -6.7117368424585329e-07  -6.2337231781375651e-07  -5.6105807827181646e-07  -4.8683978920080733e-07  -4.0307652730256407e-07  -3.1194054409444845e-07  -2.1546879111971695e-07  -1.1560564545085895e-07  -1.4239254526350609e-08  8.6766283525780818e-08  1.8554084630923850e-07  2.8017834862635810e-07  3.6870497190837157e-07  4.4904351786384110e-07  5.1897169407976980e-07  5.7607194679291343e-07  6.1767028857053581e-07  6.4076158273521067e-07  6.4191927172271802e-07  6.1718921813238474e-07  5.6197131580358281e-07  4.7090059871643896e-07  3.3775371704520456e-07  1.5542677511789477e-07  0.0000000000000000e+00  0.0000000000000000e+00  -2.8808936295712605e-07  -4.5008303323673714e-07  -5.6654002244167529e-07  -6.4366306497212376e-07  -6.8702046148206588e-07  -7.0152669848265806e-07  -6.9148342386673046e-07  -6.6065165349460386e-07  -6.1233479621309195e-07  -5.4946045942690569e-07  -4.7465507398359230e-07  -3.9030916437700260e-07  -2.9863321056815663e-07  -2.0170512242910759e-07  -1.0151082898210559e-07  2.0341727271794979e-11  1.0098378340424362e-07  1.9946954095244069e-07  2.9353237675818888e-07  3.8116030641807816e-07  4.6023992523639519e-07  5.2851683870146736e-07  5.8354955085351779e-07  6.2265534370452335e-07  6.4284716222643540e-07  6.4076158273521067e-07  6.1258002887975790e-07  5.5394911467488025e-07  4.5991194956961491e-07  3.2487047687443881e-07  1.4260736171639425e-07  0.0000000000000000e+00  0.0000000000000000e+00  -2.8405249942920781e-07  -4.3574778772810670e-07  -5.4513716249123337e-07  -6.1762478957853775e-07  -6.5815389695613878e-07  -6.7117368424588039e-07  -6.6065165349463097e-07  -6.3011437121182753e-07  -5.8270258594954501e-07  -5.2123086136031957e-07  -4.4824574307476741e-07  -3.6607936126058097e-07  -2.7689729207365944e-07  -1.8274068163727248e-07  -8.5563313997915648e-08  1.2735331167239294e-08  1.1027980369892514e-07  2.0518988221740085e-07  2.9555191070548825e-07  3.7938893978516812e-07  4.5462837626209516e-07  5.1906593342358320e-07  5.7032486235698886e-07  6.0580981226166690e-07  6.2265534370460466e-07  6.1767028857061712e-07  5.8728104819507861e-07  5.2747976657507704e-07  4.3378713191481082e-07  3.0124379164874328e-07  1.2444709677363985e-07  0.0000000000000000e+00  0.0000000000000000e+00  -2.7452645981269934e-07  -4.1191505230773660e-07  -5.1100682270767764e-07  -5.7646324779021449e-07  -6.1260390761975342e-07  -6.2337231781364809e-07  -6.1233479621298353e-07  -5.8270258594932817e-07  -5.3736800553001902e-07  -4.7894730320147605e-07  -4.0982513112292193e-07  -3.3219752702920739e-07  -2.4811179921778014e-07  -1.5950276561918584e-07  -6.8225489228729459e-08  2.3914918638337588e-08  1.1513560422622042e-07  2.0364942844748601e-07  2.8763856092485973e-07  3.6522720060533538e-07  4.3445247662659073e-07  4.9323272498631937e-07  5.3933259378592972e-07  5.7032486235698886e-07  5.8354955085357200e-07  5.7607194679302185e-07  5.4464267337645780e-07  4.8566488602242537e-07  3.9517592358562085e-07  2.6885268922056049e-07  1.0205036184792496e-07  0.0000000000000000e+00  0.0000000000000000e+00  -2.6028031084704461e-07  -3.8010385914470678e-07  -4.6626687467888250e-07  -5.2272759533582096e-07  -5.5318688973126327e-07  -5.6105807827165383e-07  -5.4946045942679727e-07  -5.2123086136042799e-07  -4.7894730320147605e-07  -4.2495958479547499e-07  -3.6142283829101139e-07  -2.9033133595938706e-07  -2.1355093711119188e-07  -1.3284940154223044e-07  -4.9924405717946454e-08  3.3570488741402511e-08  1.1600140113613485e-07  1.9573056687379560e-07  2.7109290877191461e-07  3.4037201530217644e-07  4.0177487165124395e-07  4.5340484874456608e-07  4.9323272498648200e-07  5.1906593342369162e-07  5.2851683870157578e-07  5.1897169407985112e-07  4.8756301884597892e-07  4.3114940408281108e-07  3.4630799040890595e-07  2.2934564568777207e-07  7.6334355032048145e-08  0.0000000000000000e+00  0.0000000000000000e+00  -2.4197112667624659e-07  -3.4161766777216971e-07  -4.1274656136227271e-07  -4.5863894197143568e-07  -4.8238105441561442e-07  -4.8683978920053628e-07  -4.7465507398337546e-07  -4.4824574307460478e-07  -4.0982513112281351e-07  -3.6142283829090297e-07  -3.0490973615897960e-07  -2.4202405316296012e-07  -1.7439712101904089e-07  -1.0357799285853984e-07  -3.1056632932284934e-08  4.1714267440273473e-08  1.1329855347294972e-07  1.8225651099944545e-07  2.4712490575916997e-07  3.0639665646054609e-07  3.5849971402970339e-07  4.0177487165118974e-07  4.3445247662680757e-07  4.5462837626220358e-07  4.6023992523644940e-07  4.4904351786384110e-07  4.1859586060412541e-07  3.6624198544921898e-07  2.8911365450025013e-07  1.8414205307403962e-07  4.8087965412626891e-08  0.0000000000000000e+00  0.0000000000000000e+00  -2.2018293974634706e-07  -2.9761322402054057e-07  -3.5207251050903038e-07  -3.8618114566363370e-07  -4.0241289590649851e-07  -4.0307652730213039e-07  -3.9030916437656892e-07  -3.6607936126020150e-07  -3.3219752702899055e-07  -2.9033133595868232e-07  -2.4202405316252644e-07  -1.8871415838643199e-07  -1.3175513518208894e-07  -7.2434735469732118e-08  -1.1993395508712659e-08  4.8358241269491013e-08  1.0742254243236273e-07  1.6399857089471935e-07  2.1686590366754759e-07  2.6476825720647777e-07  3.0639665646065451e-07  3.4037201530223065e-07  3.6522720060555222e-07  3.7938893978516812e-07  3.8116030641807816e-07  3.6870497190831736e-07  3.4003490955318073e-07  2.9300370963533337e-07  2.2530799283345879e-07  1.3449943805740768e-07  1.8009287356899868e-08  0.0000000000000000e+00  0.0000000000000000e+00  -1.9545299256874940e-07  -2.4914806284044805e-07  -2.8573023569592837e-07  -3.0716855786629572e-07  -3.1532473014189146e-07  -3.1194054409385214e-07  -2.9863321056745190e-07  -2.7689729207306312e-07  -2.4811179921723804e-07  -2.1355093711043294e-07  -1.7439712101844458e-07  -1.3175513518170947e-07  -8.6666609111442274e-08  -4.0124278369855267e-08  6.9142490127988877e-09  5.3513297572544988e-08  9.8746431586975176e-08  1.4168410191156382e-07  1.8138142661108412e-07  2.1686590366743917e-07  2.4712490575911576e-07  2.7109290877186040e-07  2.8763856092458868e-07  2.9555191070521720e-07  2.9353237675791783e-07  2.8017834862624968e-07  2.5397962418808304e-07  2.1331416597217419e-07  1.5645082009535559e-07  8.1559602581438126e-08  -1.3269380316028668e-08  0.0000000000000000e+00  0.0000000000000000e+00  -1.6829013051454554e-07  -1.9721440613420258e-07  -2.1510928695529633e-07  -2.2329748602443566e-07  -2.2302794066547519e-07  -2.1546879111890380e-07  -2.0170512242829444e-07  -1.8274068163645933e-07  -1.5950276561842690e-07  -1.3284940154125466e-07  -1.0357799285756406e-07  -7.2434735469027386e-08  -4.0124278369530007e-08  -7.3192772460819837e-09  2.5330353533984697e-08  5.7188556989496743e-08  8.7624589297180620e-08  1.1600472604896255e-07  1.4168410191199750e-07  1.6399857089482777e-07  1.8225651099949966e-07  1.9573056687363297e-07  2.0364942844716075e-07  2.0518988221712980e-07  1.9946954095233227e-07  1.8554084630913008e-07  1.6238712643041600e-07  1.2892164459233258e-07  8.3990653134346453e-08  2.6381425655670559e-08  -4.5164178028299666e-08  0.0000000000000000e+00  0.0000000000000000e+00  -1.3918820411800721e-07  -1.4276426192161122e-07  -1.4153747741456899e-07  -1.3618631355272063e-07  -1.2734577343499753e-07  -1.1560564544977475e-07  -1.0151082898118401e-07  -8.5563313996939866e-08  -6.8225489227319996e-08  -4.9924405716699621e-08  -3.1056632930712841e-08  -1.1993395507574247e-08  6.9142490135036191e-09  2.5330353534526798e-08  4.2929236016269606e-08  5.9390875985503196e-08  7.4396539269491919e-08  8.7624589297505880e-08  9.8746431587517277e-08  1.0742254243241694e-07  1.1329855347289551e-07  1.1600140113586380e-07  1.1513560422584095e-07  1.1027980369865409e-07  1.0098378340397257e-07  8.6766283525509767e-08  6.7114009232879064e-08  4.1482310359560338e-08  9.2980448762201764e-09  -3.0034878608490071e-08  -7.7127093285507271e-08  0.0000000000000000e+00  0.0000000000000000e+00  -1.0863630494720188e-07  -8.6728890161402055e-08  -6.6307961138614485e-08  -4.7407975914751099e-08  -3.0048840764289536e-08  -1.4239254525049566e-08  2.0341728627047695e-11  1.2735331168594547e-08  2.3914918639909681e-08  3.3570488743083025e-08  4.1714267441899777e-08  4.8358241270900475e-08  5.3513297573629191e-08  5.7188556990364105e-08  5.9390875985936877e-08  6.0124502886268159e-08  5.9390875985936877e-08  5.7188556990038844e-08  5.3513297572870249e-08  4.8358241269382592e-08  4.1714267439948213e-08  3.3570488741131461e-08  2.3914918638012327e-08  1.2735331166914034e-08  2.0341726946534328e-11  -1.4239254526675869e-08  -3.0048840765671894e-08  -4.7407975915753986e-08  -6.6307961139319216e-08  -8.6728890161849289e-08  -1.0863630494741195e-07  0.0000000000000000e+00  0.0000000000000000e+00  -7.7127093285249773e-08  -3.0034878607934417e-08  9.2980448770333280e-09  4.1482310360698750e-08  6.7114009234369842e-08  8.6766283527298701e-08  1.0098378340586993e-07  1.1027980370065986e-07  1.1513560422779252e-07  1.1600140113792378e-07  1.1329855347468444e-07  1.0742254243393482e-07  9.8746431588330429e-08  8.7624589298156402e-08  7.4396539270034021e-08  5.9390875986045297e-08  4.2929236016378026e-08  2.5330353534093117e-08  6.9142490125820473e-09  -1.1993395509254760e-08  -3.1056632932881245e-08  -4.9924405718325925e-08  -6.8225489229000510e-08  -8.5563313998403539e-08  -1.0151082898237664e-07  -1.1560564545118421e-07  -1.2734577343610884e-07  -1.3618631355350667e-07  -1.4153747741519240e-07  -1.4276426192199069e-07  -1.3918820411817662e-07  0.0000000000000000e+00  0.0000000000000000e+00  -4.5164178028028615e-08  2.6381425656239765e-08  8.3990653135159604e-08  1.2892164459357941e-07  1.6238712643209651e-07  1.8554084631113585e-07  1.9946954095460909e-07  2.0518988221962346e-07  2.0364942844987126e-07  1.9573056687612663e-07  1.8225651100161385e-07  1.6399857089667092e-07  1.4168410191319012e-07  1.1600472605020938e-07  8.7624589298373242e-08  5.7188556990580945e-08  2.5330353534201537e-08  -7.3192772465156646e-09  -4.0124278370397368e-08  -7.2434735470653690e-08  -1.0357799285935299e-07  -1.3284940154271833e-07  -1.5950276561956531e-07  -1.8274068163759774e-07  -2.0170512242932443e-07  -2.1546879111987959e-07  -2.2302794066634255e-07  -2.2329748602508618e-07  -2.1510928695575712e-07  -1.9721440613450073e-07  -1.6829013051468107e-07  0.0000000000000000e+00  0.0000000000000000e+00  -1.3269380315730512e-08  8.1559602582061542e-08  1.5645082009630427e-07  2.1331416597352945e-07  2.5397962419003461e-07  2.8017834862847230e-07  2.9353237676057412e-07  2.9555191070819876e-07  2.8763856092762444e-07  2.7109290877457091e-07  2.4712490576144679e-07  2.1686590366977020e-07  1.8138142661303569e-07  1.4168410191340696e-07  9.8746431588655689e-08  5.3513297573683401e-08  6.9142490130699383e-09  -4.0124278370180528e-08  -8.6666609112309636e-08  -1.3175513518317314e-07  -1.7439712101990825e-07  -2.1355093711157135e-07  -2.4811179921788856e-07  -2.7689729207387628e-07  -2.9863321056837347e-07  -3.1194054409461108e-07  -3.1532473014251488e-07  -3.0716855786681071e-07  -2.8573023569633494e-07  -2.4914806284073265e-07  -1.9545299256887815e-07  0.0000000000000000e+00  0.0000000000000000e+00  1.8009287357218353e-08  1.3449943805807175e-07  2.2530799283443457e-07  2.9300370963668862e-07  3.4003490955499677e-07  3.6870497191053998e-07  3.8116030642062603e-07  3.7938893978793284e-07  3.6522720060831694e-07  3.4037201530494115e-07  3.0639665646325660e-07  2.6476825720891722e-07  2.1686590366960757e-07  1.6399857089656250e-07  1.0742254243382640e-07  4.8358241270358374e-08  -1.1993395508550029e-08  -7.2434735470165799e-08  -1.3175513518301051e-07  -1.8871415838751619e-07  -2.4202405316371906e-07  -2.9033133595965811e-07  -3.3219752702937002e-07  -3.6607936126068939e-07  -3.9030916437716523e-07  -4.0307652730272670e-07  -4.0241289590706771e-07  -3.8618114566412159e-07  -3.5207251050938275e-07  -2.9761322402078452e-07  -2.2018293974645548e-07  0.0000000000000000e+00  0.0000000000000000e+00  4.8087965412945376e-08  1.8414205307470369e-07  2.8911365450122592e-07  3.6624198545054712e-07  4.1859586060586013e-07  4.4904351786595529e-07  4.6023992523883464e-07  4.5462837626480566e-07  4.3445247662951807e-07  4.0177487165395445e-07  3.5849971403241390e-07  3.0639665646331081e-07  2.4712490576177205e-07  1.8225651100145122e-07  1.1329855347441339e-07  4.1714267441086625e-08  -3.1056632931959673e-08  -1.0357799285870247e-07  -1.7439712101947457e-07  -2.4202405316339380e-07  -3.0490973615957592e-07  -3.6142283829133665e-07  -4.0982513112308456e-07  -4.4824574307476741e-07  -4.7465507398370072e-07  -4.8683978920096996e-07  -4.8238105441618362e-07  -4.5863894197197778e-07  -4.1274656136265219e-07  -3.4161766777238655e-07  -2.4197112667633468e-07  0.0000000000000000e+00  0.0000000000000000e+00  7.6334355032353076e-08  2.2934564568838193e-07  3.4630799040985462e-07  4.3114940408411212e-07  4.8756301884757811e-07  5.1897169408185689e-07  5.2851683870385260e-07  5.1906593342618528e-07  4.9323272498902988e-07  4.5340484874722238e-07  4.0177487165395445e-07  3.4037201530488694e-07  2.7109290877435407e-07  1.9573056687580137e-07  1.1600140113759852e-07  3.3570488742378293e-08  -4.9924405717512773e-08  -1.3284940154206781e-07  -2.1355093711108346e-07  -2.9033133595927864e-07  -3.6142283829122823e-07  -4.2495958479569183e-07  -4.7894730320169289e-07  -5.2123086136031957e-07  -5.4946045942706832e-07  -5.6105807827206040e-07  -5.5318688973177827e-07  -5.2272759533628175e-07  -4.6626687467919421e-07  -3.8010385914485586e-07  -2.6028031084711237e-07  0.0000000000000000e+00  0.0000000000000000e+00  1.0205036184820956e-07  2.6885268922112969e-07  3.9517592358651531e-07  4.8566488602361799e-07  5.4464267337805700e-07  5.7607194679502763e-07  5.8354955085574041e-07  5.7032486235937411e-07  5.3933259378826075e-07  4.9323272498886725e-07  4.3445247662919281e-07  3.6522720060799168e-07  2.8763856092686550e-07  2.0364942844938337e-07  1.1513560422746726e-07  2.3914918639530210e-08  -6.8225489227916308e-08  -1.5950276561875216e-07  -2.4811179921729225e-07  -3.3219752702899055e-07  -4.0982513112292193e-07  -4.7894730320163868e-07  -5.3736800553023586e-07  -5.8270258594976185e-07  -6.1233479621341722e-07  -6.2337231781410887e-07  -6.1260390762015999e-07  -5.7646324779062107e-07  -5.1100682270812487e-07  -4.1191505230788567e-07  -2.7452645981273322e-07  0.0000000000000000e+00  0.0000000000000000e+00  1.2444709677391768e-07  3.0124379164929893e-07  4.3378713191566463e-07  5.2747976657624256e-07  5.8728104819656939e-07  6.1767028857240606e-07  6.2265534370655622e-07  6.0580981226378110e-07  5.7032486235921147e-07  5.1906593342591423e-07  4.5462837626448040e-07  3.7938893978749916e-07  2.9555191070760245e-07  2.0518988221908136e-07  1.1027980370022618e-07  1.2735331168160866e-08  -8.5563313997427757e-08  -1.8274068163683880e-07  -2.7689729207338839e-07  -3.6607936126041834e-07  -4.4824574307471320e-07  -5.2123086136031957e-07  -