<?xml version="1.0"?>
<VTKFile type="UnstructuredGrid"  version="0.1"  >
<UnstructuredGrid>
<Piece  NumberOfPoints="1089" NumberOfCells="2048">
<Points>
<DataArray  type="Float64"  NumberOfComponents="3"  format="ascii">0 0 0  0.03125 0 0  0.0625 0 0  0.09375 0 0  0.125 0 0  0.15625 0 0  0.1875 0 0  0.21875 0 0  0.25 0 0  0.28125 0 0  0.3125 0 0  0.34375 0 0  0.375 0 0  0.40625 0 0  0.4375 0 0  0.46875 0 0  0.5 0 0  0.53125 0 0  0.5625 0 0  0.59375 0 0  0.625 0 0  0.65625 0 0  0.6875 0 0  0.71875 0 0  0.75 0 0  0.78125 0 0  0.8125 0 0  0.84375 0 0  0.875 0 0  0.90625 0 0  0.9375 0 0  0.96875 0 0  1 0 0  0 0.03125 0  0.03125 0.03125 0  0.0625 0.03125 0  0.09375 0.03125 0  0.125 0.03125 0  0.15625 0.03125 0  0.1875 0.03125 0  0.21875 0.03125 0  0.25 0.03125 0  0.28125 0.03125 0  0.3125 0.03125 0  0.34375 0.03125 0  0.375 0.03125 0  0.40625 0.03125 0  0.4375 0.03125 0  0.46875 0.03125 0  0.5 0.03125 0  0.53125 0.03125 0  0.5625 0.03125 0  0.59375 0.03125 0  0.625 0.03125 0  0.65625 0.03125 0  0.6875 0.03125 0  0.71875 0.03125 0  0.75 0.03125 0  0.78125 0.03125 0  0.8125 0.03125 0  0.84375 0.03125 0  0.875 0.03125 0  0.90625 0.03125 0  0.9375 0.03125 0  0.96875 0.03125 0  1 0.03125 0  0 0.0625 0  0.03125 0.0625 0  0.0625 0.0625 0  0.09375 0.0625 0  0.125 0.0625 0  0.15625 0.0625 0  0.1875 0.0625 0  0.21875 0.0625 0  0.25 0.0625 0  0.28125 0.0625 0  0.3125 0.0625 0  0.34375 0.0625 0  0.375 0.0625 0  0.40625 0.0625 0  0.4375 0.0625 0  0.46875 0.0625 0  0.5 0.0625 0  0.53125 0.0625 0  0.5625 0.0625 0  0.59375 0.0625 0  0.625 0.0625 0  0.65625 0.0625 0  0.6875 0.0625 0  0.71875 0.0625 0  0.75 0.0625 0  0.78125 0.0625 0  0.8125 0.0625 0  0.84375 0.0625 0  0.875 0.0625 0  0.90625 0.0625 0  0.9375 0.0625 0  0.96875 0.0625 0  1 0.0625 0  0 0.09375 0  0.03125 0.09375 0  0.0625 0.09375 0  0.09375 0.09375 0  0.125 0.09375 0  0.15625 0.09375 0  0.1875 0.09375 0  0.21875 0.09375 0  0.25 0.09375 0  0.28125 0.09375 0  0.3125 0.09375 0  0.34375 0.09375 0  0.375 0.09375 0  0.40625 0.09375 0  0.4375 0.09375 0  0.46875 0.09375 0  0.5 0.09375 0  0.53125 0.09375 0  0.5625 0.09375 0  0.59375 0.09375 0  0.625 0.09375 0  0.65625 0.09375 0  0.6875 0.09375 0  0.71875 0.09375 0  0.75 0.09375 0  0.78125 0.09375 0  0.8125 0.09375 0  0.84375 0.09375 0  0.875 0.09375 0  0.90625 0.09375 0  0.9375 0.09375 0  0.96875 0.09375 0  1 0.09375 0  0 0.125 0  0.03125 0.125 0  0.0625 0.125 0  0.09375 0.125 0  0.125 0.125 0  0.15625 0.125 0  0.1875 0.125 0  0.21875 0.125 0  0.25 0.125 0  0.28125 0.125 0  0.3125 0.125 0  0.34375 0.125 0  0.375 0.125 0  0.40625 0.125 0  0.4375 0.125 0  0.46875 0.125 0  0.5 0.125 0  0.53125 0.125 0  0.5625 0.125 0  0.59375 0.125 0  0.625 0.125 0  0.65625 0.125 0  0.6875 0.125 0  0.71875 0.125 0  0.75 0.125 0  0.78125 0.125 0  0.8125 0.125 0  0.84375 0.125 0  0.875 0.125 0  0.90625 0.125 0  0.9375 0.125 0  0.96875 0.125 0  1 0.125 0  0 0.15625 0  0.03125 0.15625 0  0.0625 0.15625 0  0.09375 0.15625 0  0.125 0.15625 0  0.15625 0.15625 0  0.1875 0.15625 0  0.21875 0.15625 0  0.25 0.15625 0  0.28125 0.15625 0  0.3125 0.15625 0  0.34375 0.15625 0  0.375 0.15625 0  0.40625 0.15625 0  0.4375 0.15625 0  0.46875 0.15625 0  0.5 0.15625 0  0.53125 0.15625 0  0.5625 0.15625 0  0.59375 0.15625 0  0.625 0.15625 0  0.65625 0.15625 0  0.6875 0.15625 0  0.71875 0.15625 0  0.75 0.15625 0  0.78125 0.15625 0  0.8125 0.15625 0  0.84375 0.15625 0  0.875 0.15625 0  0.90625 0.15625 0  0.9375 0.15625 0  0.96875 0.15625 0  1 0.15625 0  0 0.1875 0  0.03125 0.1875 0  0.0625 0.1875 0  0.09375 0.1875 0  0.125 0.1875 0  0.15625 0.1875 0  0.1875 0.1875 0  0.21875 0.1875 0  0.25 0.1875 0  0.28125 0.1875 0  0.3125 0.1875 0  0.34375 0.1875 0  0.375 0.1875 0  0.40625 0.1875 0  0.4375 0.1875 0  0.46875 0.1875 0  0.5 0.1875 0  0.53125 0.1875 0  0.5625 0.1875 0  0.59375 0.1875 0  0.625 0.1875 0  0.65625 0.1875 0  0.6875 0.1875 0  0.71875 0.1875 0  0.75 0.1875 0  0.78125 0.1875 0  0.8125 0.1875 0  0.84375 0.1875 0  0.875 0.1875 0  0.90625 0.1875 0  0.9375 0.1875 0  0.96875 0.1875 0  1 0.1875 0  0 0.21875 0  0.03125 0.21875 0  0.0625 0.21875 0  0.09375 0.21875 0  0.125 0.21875 0  0.15625 0.21875 0  0.1875 0.21875 0  0.21875 0.21875 0  0.25 0.21875 0  0.28125 0.21875 0  0.3125 0.21875 0  0.34375 0.21875 0  0.375 0.21875 0  0.40625 0.21875 0  0.4375 0.21875 0  0.46875 0.21875 0  0.5 0.21875 0  0.53125 0.21875 0  0.5625 0.21875 0  0.59375 0.21875 0  0.625 0.21875 0  0.65625 0.21875 0  0.6875 0.21875 0  0.71875 0.21875 0  0.75 0.21875 0  0.78125 0.21875 0  0.8125 0.21875 0  0.84375 0.21875 0  0.875 0.21875 0  0.90625 0.21875 0  0.9375 0.21875 0  0.96875 0.21875 0  1 0.21875 0  0 0.25 0  0.03125 0.25 0  0.0625 0.25 0  0.09375 0.25 0  0.125 0.25 0  0.15625 0.25 0  0.1875 0.25 0  0.21875 0.25 0  0.25 0.25 0  0.28125 0.25 0  0.3125 0.25 0  0.34375 0.25 0  0.375 0.25 0  0.40625 0.25 0  0.4375 0.25 0  0.46875 0.25 0  0.5 0.25 0  0.53125 0.25 0  0.5625 0.25 0  0.59375 0.25 0  0.625 0.25 0  0.65625 0.25 0  0.6875 0.25 0  0.71875 0.25 0  0.75 0.25 0  0.78125 0.25 0  0.8125 0.25 0  0.84375 0.25 0  0.875 0.25 0  0.90625 0.25 0  0.9375 0.25 0  0.96875 0.25 0  1 0.25 0  0 0.28125 0  0.03125 0.28125 0  0.0625 0.28125 0  0.09375 0.28125 0  0.125 0.28125 0  0.15625 0.28125 0  0.1875 0.28125 0  0.21875 0.28125 0  0.25 0.28125 0  0.28125 0.28125 0  0.3125 0.28125 0  0.34375 0.28125 0  0.375 0.28125 0  0.40625 0.28125 0  0.4375 0.28125 0  0.46875 0.28125 0  0.5 0.28125 0  0.53125 0.28125 0  0.5625 0.28125 0  0.59375 0.28125 0  0.625 0.28125 0  0.65625 0.28125 0  0.6875 0.28125 0  0.71875 0.28125 0  0.75 0.28125 0  0.78125 0.28125 0  0.8125 0.28125 0  0.84375 0.28125 0  0.875 0.28125 0  0.90625 0.28125 0  0.9375 0.28125 0  0.96875 0.28125 0  1 0.28125 0  0 0.3125 0  0.03125 0.3125 0  0.0625 0.3125 0  0.09375 0.3125 0  0.125 0.3125 0  0.15625 0.3125 0  0.1875 0.3125 0  0.21875 0.3125 0  0.25 0.3125 0  0.28125 0.3125 0  0.3125 0.3125 0  0.34375 0.3125 0  0.375 0.3125 0  0.40625 0.3125 0  0.4375 0.3125 0  0.46875 0.3125 0  0.5 0.3125 0  0.53125 0.3125 0  0.5625 0.3125 0  0.59375 0.3125 0  0.625 0.3125 0  0.65625 0.3125 0  0.6875 0.3125 0  0.71875 0.3125 0  0.75 0.3125 0  0.78125 0.3125 0  0.8125 0.3125 0  0.84375 0.3125 0  0.875 0.3125 0  0.90625 0.3125 0  0.9375 0.3125 0  0.96875 0.3125 0  1 0.3125 0  0 0.34375 0  0.03125 0.34375 0  0.0625 0.34375 0  0.09375 0.34375 0  0.125 0.34375 0  0.15625 0.34375 0  0.1875 0.34375 0  0.21875 0.34375 0  0.25 0.34375 0  0.28125 0.34375 0  0.3125 0.34375 0  0.34375 0.34375 0  0.375 0.34375 0  0.40625 0.34375 0  0.4375 0.34375 0  0.46875 0.34375 0  0.5 0.34375 0  0.53125 0.34375 0  0.5625 0.34375 0  0.59375 0.34375 0  0.625 0.34375 0  0.65625 0.34375 0  0.6875 0.34375 0  0.71875 0.34375 0  0.75 0.34375 0  0.78125 0.34375 0  0.8125 0.34375 0  0.84375 0.34375 0  0.875 0.34375 0  0.90625 0.34375 0  0.9375 0.34375 0  0.96875 0.34375 0  1 0.34375 0  0 0.375 0  0.03125 0.375 0  0.0625 0.375 0  0.09375 0.375 0  0.125 0.375 0  0.15625 0.375 0  0.1875 0.375 0  0.21875 0.375 0  0.25 0.375 0  0.28125 0.375 0  0.3125 0.375 0  0.34375 0.375 0  0.375 0.375 0  0.40625 0.375 0  0.4375 0.375 0  0.46875 0.375 0  0.5 0.375 0  0.53125 0.375 0  0.5625 0.375 0  0.59375 0.375 0  0.625 0.375 0  0.65625 0.375 0  0.6875 0.375 0  0.71875 0.375 0  0.75 0.375 0  0.78125 0.375 0  0.8125 0.375 0  0.84375 0.375 0  0.875 0.375 0  0.90625 0.375 0  0.9375 0.375 0  0.96875 0.375 0  1 0.375 0  0 0.40625 0  0.03125 0.40625 0  0.0625 0.40625 0  0.09375 0.40625 0  0.125 0.40625 0  0.15625 0.40625 0  0.1875 0.40625 0  0.21875 0.40625 0  0.25 0.40625 0  0.28125 0.40625 0  0.3125 0.40625 0  0.34375 0.40625 0  0.375 0.40625 0  0.40625 0.40625 0  0.4375 0.40625 0  0.46875 0.40625 0  0.5 0.40625 0  0.53125 0.40625 0  0.5625 0.40625 0  0.59375 0.40625 0  0.625 0.40625 0  0.65625 0.40625 0  0.6875 0.40625 0  0.71875 0.40625 0  0.75 0.40625 0  0.78125 0.40625 0  0.8125 0.40625 0  0.84375 0.40625 0  0.875 0.40625 0  0.90625 0.40625 0  0.9375 0.40625 0  0.96875 0.40625 0  1 0.40625 0  0 0.4375 0  0.03125 0.4375 0  0.0625 0.4375 0  0.09375 0.4375 0  0.125 0.4375 0  0.15625 0.4375 0  0.1875 0.4375 0  0.21875 0.4375 0  0.25 0.4375 0  0.28125 0.4375 0  0.3125 0.4375 0  0.34375 0.4375 0  0.375 0.4375 0  0.40625 0.4375 0  0.4375 0.4375 0  0.46875 0.4375 0  0.5 0.4375 0  0.53125 0.4375 0  0.5625 0.4375 0  0.59375 0.4375 0  0.625 0.4375 0  0.65625 0.4375 0  0.6875 0.4375 0  0.71875 0.4375 0  0.75 0.4375 0  0.78125 0.4375 0  0.8125 0.4375 0  0.84375 0.4375 0  0.875 0.4375 0  0.90625 0.4375 0  0.9375 0.4375 0  0.96875 0.4375 0  1 0.4375 0  0 0.46875 0  0.03125 0.46875 0  0.0625 0.46875 0  0.09375 0.46875 0  0.125 0.46875 0  0.15625 0.46875 0  0.1875 0.46875 0  0.21875 0.46875 0  0.25 0.46875 0  0.28125 0.46875 0  0.3125 0.46875 0  0.34375 0.46875 0  0.375 0.46875 0  0.40625 0.46875 0  0.4375 0.46875 0  0.46875 0.46875 0  0.5 0.46875 0  0.53125 0.46875 0  0.5625 0.46875 0  0.59375 0.46875 0  0.625 0.46875 0  0.65625 0.46875 0  0.6875 0.46875 0  0.71875 0.46875 0  0.75 0.46875 0  0.78125 0.46875 0  0.8125 0.46875 0  0.84375 0.46875 0  0.875 0.46875 0  0.90625 0.46875 0  0.9375 0.46875 0  0.96875 0.46875 0  1 0.46875 0  0 0.5 0  0.03125 0.5 0  0.0625 0.5 0  0.09375 0.5 0  0.125 0.5 0  0.15625 0.5 0  0.1875 0.5 0  0.21875 0.5 0  0.25 0.5 0  0.28125 0.5 0  0.3125 0.5 0  0.34375 0.5 0  0.375 0.5 0  0.40625 0.5 0  0.4375 0.5 0  0.46875 0.5 0  0.5 0.5 0  0.53125 0.5 0  0.5625 0.5 0  0.59375 0.5 0  0.625 0.5 0  0.65625 0.5 0  0.6875 0.5 0  0.71875 0.5 0  0.75 0.5 0  0.78125 0.5 0  0.8125 0.5 0  0.84375 0.5 0  0.875 0.5 0  0.90625 0.5 0  0.9375 0.5 0  0.96875 0.5 0  1 0.5 0  0 0.53125 0  0.03125 0.53125 0  0.0625 0.53125 0  0.09375 0.53125 0  0.125 0.53125 0  0.15625 0.53125 0  0.1875 0.53125 0  0.21875 0.53125 0  0.25 0.53125 0  0.28125 0.53125 0  0.3125 0.53125 0  0.34375 0.53125 0  0.375 0.53125 0  0.40625 0.53125 0  0.4375 0.53125 0  0.46875 0.53125 0  0.5 0.53125 0  0.53125 0.53125 0  0.5625 0.53125 0  0.59375 0.53125 0  0.625 0.53125 0  0.65625 0.53125 0  0.6875 0.53125 0  0.71875 0.53125 0  0.75 0.53125 0  0.78125 0.531
[...]
<PointData  Scalars="theta_dt"> 
<DataArray  type="Float64"  Name="theta_dt"  format="ascii">2.7751783825632737e+02  1.1787454060468249e+02  3.2747497879755521e+01  2.4729814438199628e+02  1.9987335692580231e+01  1.5907972757442747e+02  6.3413420327967970e+01  1.3458263053382467e+02  3.2518956506108289e+01  1.4051154346902197e+02  2.0737005224863911e+00  1.3391097220418416e+02  3.4231098450882534e+01  2.1666940257574815e+01  1.0612625078966195e+02  2.2119481376261206e+01  3.9301878729865893e+00  6.3087416595535863e+01  4.9323389833303644e+01  3.9301878729571098e+00  1.4128545991614925e+00  2.2928281887255729e+01  3.6186723363183773e+01  2.3407167701818391e+01  5.0193242176036925e+00  8.2284839845678699e-03  9.8989937591791200e-12  3.2321203094802370e-11  4.8909938587175023e-11  4.4123009419250377e-11  2.9171408782601749e-11  1.9322203938940267e-11  7.9348124139387296e-12  1.1914752864361749e+02  2.6720064530839119e+02  1.2033649766198032e+02  3.3431470288897678e+01  2.3837022923647262e+02  3.6075518122229298e+01  1.6240230644485845e+02  6.4737888842567898e+01  1.0882584032748107e+02  4.7540114786285869e+01  1.4344630261464212e+02  2.1170123488559160e+00  1.3717414051323388e+02  2.1828407381469997e+01  2.2119481376323126e+01  1.0834283013542939e+02  1.3637336364584606e+01  7.3214215060192407e+00  6.4405076114862950e+01  5.0353570456422261e+01  1.6270155138152120e+00  2.8248971069781517e+00  2.3407167701906364e+01  3.6942528293641629e+01  1.8825147428657381e+01  2.8248971069408149e+00  8.4003461535548871e-03  1.0105746612005000e-11  3.8594135145676337e-11  4.9273597637907358e-11  4.5044573599875707e-11  2.9780690102853127e-11  7.7724745713026227e-12  4.8047472599165175e+01  8.0566842044222540e+01  2.7278146463593134e+02  1.5049178853435916e+02  1.3656862957063064e+01  2.4334888930257276e+02  3.6829000392285920e+01  1.3349411122163824e+02  8.5563439899800144e+01  1.1109880397371194e+02  4.8533049481958358e+01  1.2364567563223459e+02  6.1135467472072804e+00  1.4003919382824890e+02  2.2284320942843802e+01  3.1458562459465966e+01  1.0305653006823147e+02  1.3922169173546573e+01  7.4743385418246815e+00  6.7938970007945571e+01  4.1282522573810844e+01  1.6609977656740265e+00  2.8838986125873181e+00  2.6841137285875654e+01  3.5153588471713825e+01  1.9218334153533693e+01  2.8838986125492010e+00  9.5714441619358203e-14  1.6583652230494331e-11  3.9400221879120019e-11  5.0302738288812936e-11  3.7707066374656134e-11  1.8926892148467151e-11  2.6388343415022996e+02  4.9051004096671086e+01  8.2249581203479906e+01  2.5361067573576193e+02  1.5363499756785265e+02  1.3942103603306185e+01  2.2703222102693567e+02  5.6759654380003845e+01  1.3628230252693487e+02  8.7350539248203646e+01  8.5563439899728522e+01  6.5548949211930164e+01  1.2622817005525035e+02  6.2412358095119629e+00  1.3922072278703081e+02  1.2647990197580260e+01  3.2115613841912243e+01  1.0520899446131033e+02  7.5683672796011479e+00  1.2113954283363293e+01  6.9357960281999382e+01  4.2144759637660854e+01  4.5435967852857728e-01  4.9166341699930376e+00  2.7401747974391338e+01  3.5887815089126754e+01  1.4771856082318328e+01  1.3839490931694420e+00  9.7713557321708071e-14  1.6930022527550795e-11  4.4203550785731530e-11  4.8050334980706592e-11  3.8494625568480841e-11  2.2566180084118693e+02  2.6939496937808673e+02  8.0566842044260227e+01  4.8047472599137862e+01  2.5890765156897186e+02  1.8194632408501516e+02  1.9385007215010364e+00  2.3177407262545682e+02  5.7945150679321635e+01  1.0684131223955232e+02  1.0882584032755530e+02  8.7350539248130531e+01  6.6918020915479659e+01  1.0473933922874170e+02  1.2647990197616776e+01  1.4212852152990894e+02  1.2912159275718999e+01  4.2622961258661881e+01  9.7121069610961413e+01  7.7264420864309429e+00  1.2366969354189576e+01  7.0984286638960285e+01  3.3108226191566565e+01  4.6384954810827311e-01  5.0193242176561812e+00  3.0323726289238255e+01  3.3155587962385454e+01  1.5080384753095659e+01  1.4128545991369796e+00  1.3294669861465203e-12  2.4077016899796371e-11  4.5126797173427155e-11  4.9053926262627362e-11  5.1815145051682014e+00  1.8458226953048819e+02  2.7939401766282867e+02  8.2249581203518375e+01  4.9051004096643197e+01  2.3202920663201846e+02  1.8574650039393308e+02  1.9789887311033982e+00  2.0900521524203842e+02  8.0761783219545535e+01  1.0907282653712470e+02  1.1109880397378771e+02  6.3413420327903339e+01  8.4978408513032846e+01  1.0692695119370121e+02  1.2912159275756279e+01  1.3717414051321302e+02  6.1135467471846745e+00  4.3513195059238200e+01  9.9149564496408459e+01  3.4523674812717644e+00  1.8161758085148474e+01  7.2466882155783011e+01  3.3799732862208060e+01  4.0910444795668070e-02  7.6605117863395122e+00  3.0957075200363445e+01  3.3848083842786032e+01  1.0989185715485476e+01  5.2534622354174265e-01  1.3572345652369438e-12  2.4579895480455524e-11  4.7909293140313702e-11  1.9594984460983298e+02  4.4113878483811408e+00  1.8843750085348162e+02  2.8522951080683731e+02  1.1670989663090650e+02  2.0986053850969260e+01  2.3687542651831868e+02  2.1016031046021473e+02  1.4489721936469555e+00  2.1337055030114061e+02  8.2448593968816169e+01  8.0761783219482098e+01  1.3182921271411644e+02  6.4737888842501931e+01  8.6753288749964085e+01  8.4978408512955028e+01  2.1828407381520602e+01  1.4003919382822761e+02  6.2412358094888845e+00  5.4613010384610554e+01  8.8711307579269885e+01  3.5244744896325231e+00  1.8541089094722654e+01  7.2022347920569899e+01  2.5265426715178620e+01  4.1764910550233958e-02  7.8205111463212589e+00  3.3155587962437721e+01  3.0323726289170043e+01  1.1218708589444581e+01  5.3631873580722822e-01  4.6565768256775301e-12  3.1659945574385556e-11  2.5960566264277730e+02  2.0004250194142324e+02  4.5035251953441566e+00  1.4429383652946228e+02  2.8469290348367082e+02  1.1914752864366316e+02  2.1424373806391198e+01  2.0396877280559548e+02  2.1454977112616680e+02  1.4792357883102099e+00  1.8552005636692064e+02  1.0684131223962095e+02  8.2448593968751410e+01  1.3458263053389828e+02  4.3574783291524191e+01  1.0473933922881950e+02  8.6753288749884618e+01  2.2284320942895462e+01  1.3117129580111387e+02  2.0737005224762766e+00  5.5753671341988913e+01  9.0564154077220323e+01  1.0806170130340480e+00  2.5265426715257618e+01  7.3526624644250830e+01  2.5793126719674788e+01  8.2284839851054330e-03  1.0989185715561481e+01  3.3848083842839394e+01  3.0957075200293804e+01  7.6605117862747587e+00  1.2275076151899889e-01  4.7538352507794719e-12  8.5170981599816386e+01  2.6502785126789655e+02  2.3092344454728828e+02  2.8926446689231998e+01  1.4730759359138526e+02  2.9063907047866979e+02  1.5421350199282821e+02  3.1007271368205300e+00  2.0822891547169687e+02  2.3322444302795375e+02  1.0467914793440176e+01  1.8939487453969821e+02  1.0907282653719477e+02  5.6759654379949602e+01  1.5314345738820458e+02  4.4484897084498158e+01  1.0692695119378065e+02  6.5548949211856694e+01  3.3530766498066995e+01  1.3391097220414218e+02  2.1170123488455901e+00  6.6769324993613267e+01  7.8374465607193812e+01  1.1031870495137455e+00  2.5793126719755435e+01  7.0984286638938201e+01  1.8161758085079263e+01  8.4003461541036772e-03  1.1218708589522173e+01  3.5153588471746701e+01  2.6841137285795927e+01  7.8205111462551535e+00  1.2531456454262122e-01  8.5170981599833553e+01  3.9794295889838160e+01  2.3648332707250498e+02  2.3574656921086921e+02  2.9530611670098740e+01  1.0305908178728079e+02  2.7939401766281566e+02  1.5743444366194697e+02  3.1654896972350972e+00  1.7137360344354337e+02  2.3809562691975520e+02  1.0686550272897378e+01  1.5815859590190189e+02  1.3349411122170781e+02  5.7945150679266256e+01  1.5634204983880286e+02  2.6972549104991817e+01  1.2364567563230700e+02  6.6918020915404668e+01  3.4231098450947087e+01  1.2161180884128737e+02  2.3933774790500101e-01  6.8163885770145427e+01  8.0011414245328410e+01  1.1340039813273110e-01  3.3108226191651440e+01  7.2466882155760445e+01  1.8541089094651998e+01  1.2275076152359946e-01  1.4771856082402355e+01  3.5887815089160320e+01  2.7401747974309945e+01  4.9166341699416236e+00  2.4586978781816686e+02  1.2832640854618384e+02  4.0625449479948465e+01  2.4142257682934599e+02  2.5796642921945931e+02  6.3741180665688951e+01  1.0521159947620021e+02  2.8522951080682401e+02  1.9059275959602533e+02  2.4930323723517498e+00  1.7495295527191971e+02  2.4955319617654754e+02  2.5809069475528226e+01  1.6146193578645651e+02  1.3628230252700590e+02  3.6075518122187496e+01  1.7139668728794229e+02  2.7535904493540485e+01  1.2622817005532427e+02  4.7540114786221324e+01  4.7362912327268830e+01  1.2415182341518651e+02  2.4433661580734664e-01  7.8374465607270906e+01  6.6769324993529679e+01  1.1576890713434472e-01  3.3799732862294711e+01  6.7938970007903137e+01  1.2113954283306601e+01  1.2531456454731790e-01  1.5080384753181441e+01  3.6186723363195014e+01  2.2928281887169554e+01  1.3530593830432548e+02  2.5100508553546888e+02  1.3100666592438660e+02  6.3114512389490862e+00  2.0403085374472190e+02  2.6335438040641424e+02  6.5072494864457965e+01  6.3741180665664970e+01  2.6388343415020540e+02  1.9457352751376393e+02  2.5451024683342873e+00  1.3646195638063526e+02  2.5476542647959971e+02  2.6348124138321477e+01  1.2872570005410458e+02  1.5907972757449275e+02  3.6829000392243245e+01  1.7497652125125069e+02  1.4177449945791077e+01  1.4051154346908416e+02  4.8533049481892455e+01  4.8352145928181507e+01  1.0912568027144928e+02  1.1340039813394247e-01  8.0011414245407110e+01  6.8163885770060105e+01  4.0910444796552092e-02  4.1282522573897289e+01  6.9357960281956068e+01  1.2366969354131699e+01  5.2534622355447547e-01  1.8825147428744945e+01  3.6942528293653105e+01  7.4252345699497750e+00  1.3813197188200718e+02  2.4586978781816347e+02  1.7107579195307019e+02  6.4432737838329173e+00  2.0829229304880315e+02  2.7505116461452400e+02  1.0305908178731264e+02  6.5072494864433480e+01  2.6939496937806166e+02  2.2335567969045948e+02  1.7191244886570519e+01  1.3931213484021202e+02  2.5801287110193925e+02  4.6257812237207631e+01  1.3141429713433968e+02  1.6240230644492507e+02  1.9578416012147809e+01  1.8538649398746531e+02  1.4473563701734236e+01  1.4344630261470562e+02  3.1853653160672629e+01  6.2697554759518255e+01  1.1140490644954093e+02  1.1576890713558137e-01  8.8711307579336207e+01  5.4613010384526277e+01  4.1764910551136451e-02  4.2144759637749104e+01  6.3087416595475588e+01  7.3214215059764651e+00  5.3631873582022693e-01  1.9218334153623083e+01  1.7412157260634658e+02  4.4782082468061972e+01  9.0957553702551181e+01  2.5100508553546544e+02  1.7464892361637138e+02  5.7164863456188577e+00  1.6472558823118695e+02  2.8079595184649907e+02  1.0521159947623271e+02  2.8926446689218956e+01  2.3928858260932910e+02  2.2802074212956293e+02  1.7550305515397657e+01  1.0154395175530394e+02  2.6340179228563596e+02  4.7223964441986844e+01  9.9102186101154984e+01  1.8195713428695811e+02  1.9987335692551682e+01  1.8925852254307020e+02  5.3560172507157571e+00  1.5424752114681019e+02  3.2518956506054401e+01  6.4007071527292453e+01  9.4522363616295351e+01  1.0806170130424952e+00  9.0564154077287995e+01  5.5753671341902873e+01  4.5435967853517811e-01  4.9323389833386223e+01  6.4405076114801417e+01  7.4743385417810124e+00  1.3839490931934535e+00  1.6325571650956164e+02  1.9603611036490284e+02  4.5717412212781738e+01  9.2857315857328516e+01  2.3311347651904833e+02  2.0837043377436669e+02  5.8358823053345548e+00  1.6816608795557946e+02  2.8089271876313444e+02  1.4429383652949880e+02  2.9530611670085424e+01  2.4428642363304570e+02  2.5021145720673766e+02  4.0228169346012969e+01  1.0366482406044655e+02  2.5801287110193078e+02  7.1089524515832579e+01  1.0117205907977926e+02  1.8575753638045026e+02  7.6877332983927724e+00  1.9417713802864125e+02  5.4678843630011116e+00  1.5746917334846464e+02  1.9127465704128575e+01  7.8725367282150572e+01  9.6496581280125326e+01  1.1031870495223692e+00  9.7121069611012459e+01  4.2622961258581675e+01  4.6384954811501178e-01  5.0353570456506567e+01  5.6746514250549140e+01  3.8497803992618693e+00  7.8519710649405807e+00  1.6666551612653643e+02  2.0013056946457132e+02  9.0957553702563672e+01  4.4782082468054398e+01  2.3798234273666563e+02  2.1272251062939733e+02  3.6491392541917186e+01  1.2154984539677619e+02  2.8675951415215502e+02  1.4730759359142252e+02  4.4113878483788858e+00  2.0738808754299819e+02  2.5543743611386080e+02  4.1068384925352866e+01  6.8827762190237550e+01  2.6340179228562732e+02  7.2574318057201836e+01  7.1089524515779303e+01  2.0061867255819078e+02  7.8483012136653061e+00  1.9823277016839882e+02  6.9279061511590467e-01  1.6394873509786706e+02  1.9526966723915631e+01  8.0369644940196039e+01  7.8725367282068675e+01  3.4523674812914931e+00  9.9149564496460570e+01  4.3513195059156317e+01  1.6270155138316287e+00  5.6746514250622987e+01  5.7931736101845509e+01  9.1788920249040089e+01  8.0159692911721461e+00  1.3201147602148214e+02  2.0932738539793027e+02  9.2857315857341277e+01  4.5717412212774015e+01  2.0861778940850994e+02  2.3730636475365793e+02  3.7253560868837731e+01  1.2408856578671733e+02  2.7505116461451337e+02  1.8458226953052559e+02  4.5035251953418554e+00  2.1171964686960735e+02  2.6925792304833919e+02  6.8827762190277397e+01  7.0265315999508047e+01  2.4955319617652356e+02  9.9102186101215693e+01  7.2574318057147451e+01  2.0480884419488714e+02  1.0324321053249466e+00  1.9717512241179165e+02  7.0726041271057316e-01  1.6737300927394145e+02  9.6807097741930193e+00  9.4522363616374108e+01  8.0369644940112423e+01  3.5244744896526647e+00  1.0305653006826378e+02  3.1458562459393956e+01  1.6609977656907864e+00  5.7931736101920897e+01  1.4796065779524250e+02  1.2621852638038210e+02  7.7960954186487372e+00  1.3476870063816480e+02  2.1369944938326944e+02  1.3530593830433978e+02  7.2733221493049669e+00  2.1297503259501488e+02  2.4226280468080324e+02  7.7739323372818845e+01  7.7739323372799518e+01  2.8079595184648821e+02  1.8843750085351977e+02  3.7462689680553800e+00  1.7046861911821864e+02  2.7488171119191634e+02  7.0265315999548719e+01  4.0228169345984618e+01  2.5476542647957521e+02  1.0117205907984122e+02  4.6257812237165744e+01  2.1381220702856973e+02  1.0539957398031505e+00  2.0129337120118279e+02  4.2983144735376805e-01  1.6896796660124866e+02  9.8829034932604571e+00  9.6496581280205746e+01  6.2697554759438681e+01  7.5683672796342369e+00  1.0520899446134331e+02  3.2115613841838730e+01  3.8497803992907458e+00  4.3273418478493291e+01  1.3796118843315708e+02  1.2885475800588688e+02  7.9589266121944187e+00  9.2074516747087472e+01  2.0932738539792803e+02  1.3813197188202179e+02  7.4252345699483309e+00  1.7433653644864214e+02  2.5562463331557757e+02  7.9363006271818548e+01  7.9363006271798810e+01  2.5796642921943914e+02  2.2104499983788810e+02  3.8245144761788992e+00  1.7402906921824001e+02  2.7913527916315815e+02  1.0154395175535224e+02  4.1068384925323933e+01  2.3322444302791587e+02  1.2872570005416893e+02  4.7223964441944084e+01  2.1827794211716525e+02  6.9279061511790729e-01  1.9417713802862195e+02  4.3880901417890744e-01  1.7249707369848286e+02  3.4878420100407643e+00  1.0912568027151973e+02  6.4007071527211210e+01  7.7264420864647221e+00  1.0612625078967309e+02  2.1666940257514156e+01  4.3273418478495451e+01  4.4177237890810865e+01  1.4084268022734616e+02  1.5234393330603058e+02  4.6865166091549391e+01  9.3997608070624494e+01  2.1369944938326717e+02  1.7422604713126637e+02  6.8376482418994389e+00  1.7797777283482696e+02  2.6096367316915433e+02  1.2154984539680105e+02  3.6491392541906336e+01  2.6335438040639366e+02  2.2566180084122252e+02  2.4937460077113684e+01  1.3113859545070403e+02  2.8496536823032380e+02  1.0366482406049586e+02  1.7191244886555978e+01  2.3809562691971652e+02  1.3141429713440539e+02  2.5809069475499719e+01  2.2064225691131736e+02  7.0726041271261764e-01  1.9823277016837912e+02  3.4878420100523053e+00  1.6896796660123840e+02  3.5606899482580396e+00  1.1140490644961285e+02  4.7362912327195339e+01  1.3637336364631812e+01  1.0834283013544076e+02  9.4725059038798676e+01  4.4177237890813068e+01  7.5028730511841371e+00  1.1766619849638096e+02  1.5552582669721798e+02  4.7844003640426685e+01  4.6865166091544197e+01  1.9603611036489559e+02  1.7786497581000842e+02  6.9804610686396993e+00  1.3300386383758314e+02  2.6189402775736647e+02  1.2408856578674271e+02  3.7253560868826646e+01  2.3092344454726125e+02  2.5103277772414117e+02  2.5458310088600339e+01  1.3387758886605704e+02  2.7913527916315013e+02  1.3646195638068812e+02  1.7550305515382814e+01  2.1016031046016522e+02  1.5815859590196499e+02  2.6348124138292373e+01  2.2525064612542860e+02  5.3560172507284527e+00  1.8538649398742714e+02  3.5606899482698218e+00  1.7249707369847238e+02  4.2983144735199069e-01  1.2161180884134468e+02  4.8352145928106474e+01  1.3922169173594765e+01  6.4202723290083597e+01  9.9853215674148259e+01  7.9955860210045103e+01  7.6595799292225530e+00  1.2012380406843663e+02  1.6600163804937412e+02  9.2074516747095061e+01  4.7844003640421384e+01  2.0013056946456393e+02  2.0454078902409984e+02  4.2599003280303265e+01  1.3578181571373074e+02  2.6736401174707106e+02  1.6472558823121437e+02  5.7164863456168984e+00  2.3574656921084161e+02  2.5627591093645822e+02  5.5970837728839683e+01  9.2111163308985653e+01  2.8496536823031562e+02  1.3931213484026600e+02  2.4930323723493131e+00  2.1454977112611627e+02  1.6146193578652091e+02  1.0467914793426010e+01  2.2064225691130721e+02  5.4678843630140719e+00  1.8925852254303126e+02  9.6807097742179415e+00  1.6394873509783673e+02  4.3880901417709300e-01  1.2415182341524503e+02  3.3530766498003757e+01  6.5239738482289820e+00  3.6217149975571623e+01  1.0193877484376834e+02  8.1625838250312583e+01  7.7561410139846405e+00  8.5865448587693621e+01  1.6946878966856286e+02  9.3997608070632239e+01  7.7960954186477371e+00  1.7055922998514620e+02  2.0881287896362269e+02  4.3488736688567592e+01  8.7907990772564318e+01  2.5562463331556995e+02  1.6816608795560745e+02  5.8358823053325546e+00  1.9594984460980092e+02  2.7234570663367157e+02  5.7139858606821491e+01  9.4035020041755487e+01  2.6925792304831822e+02  1.7137360344359672e+02  2.5451024683317995e+00  1.8194632408495858e+02  1.8552005636697854e+02  1.0686550272882917e+01  2.2525064612541826e+02  1.4177449945817779e+01  1.7139668728788897e+02  9.8829034932858999e+00  1.6737300927391047e+02  2.3933774790651177e-01  1.3117129580115500e+02  5.2032989589761037e+01  6.6602351933411574e+00  3.6973590403845321e+01  9.2787084840324468e+01  1.0646059342203847e+02  7.9181377098684171e+00  8.7658855764884493e+01  1.6600163804937250e+02  1.3201147602149069e+02  7.9589266121933981e+00  1.7412157260633589e+02  2.2377701001057926e+02  8.7907990772579112e+01  8.9744058995313253e+01  2.6096367316914655e+02  2.0403085374474693e+02  5.0755062163191553e+00  2.0004250194139050e+02  2.7803398699541827e+02  9.2111163309020824e+01  5.5970837728813898e+01  2.7488171119189491e+02  1.7495295527197416e+02  1.9385007215034353e+00  1.8574650039387532e+02  1.8939487453975730e+02  1.4489721936446480e+00  2.1381220702854193e+02  1.4473563701761497e+01  1.7497652125119623e+02  1.9127465704167776e+01  1.5424752114676235e+02  2.4433661580888896e-01  4.0741798798676797e+01  5.3119763589266462e+01  3.6217149975572539e+01  6.5239738482287697e+00  9.4725059038797440e+01  1.0868415593142305e+02  4.5414429511106519e+01  4.5414429511103513e+01  1.6946878966856121e+02  1.3476870063817353e+02  7.5985632283411464e+00  1.3502112754824265e+02  2.2845087245984394e+02  8.9744058995328359e+01  4.2599003280294539e+01  2.3730636475364290e+02  2.0829229304882870e+02  5.1815145051703739e+00  1.5565266367667039e+02  2.8341152847519095e+02  9.4035020041791384e+01  5.7139858606795165e+01  2.5021145720670515e+02  2.0396877280564490e+02  1.9789887311058472e+00  1.5049178853429976e+02  2.0900521524208639e+02  1.4792357883078540e+00  2.1827794211713686e+02  2.6972549105032705e+01  1.5314345738813981e+02  1.9526966723955649e+01  1.5746917334841581e+02  4.0761172090314437e+00  2.5850197976800040e+01  5.9146329503236032e+01  3.6973590403846259e+01  6.660235193