<?xml version="1.0"?>
<VTKFile type="UnstructuredGrid"  version="0.1"  >
<UnstructuredGrid>
<Piece  NumberOfPoints="1089" NumberOfCells="2048">
<Points>
<DataArray  type="Float64"  NumberOfComponents="3"  format="ascii">0 0 0  0.03125 0 0  0.0625 0 0  0.09375 0 0  0.125 0 0  0.15625 0 0  0.1875 0 0  0.21875 0 0  0.25 0 0  0.28125 0 0  0.3125 0 0  0.34375 0 0  0.375 0 0  0.40625 0 0  0.4375 0 0  0.46875 0 0  0.5 0 0  0.53125 0 0  0.5625 0 0  0.59375 0 0  0.625 0 0  0.65625 0 0  0.6875 0 0  0.71875 0 0  0.75 0 0  0.78125 0 0  0.8125 0 0  0.84375 0 0  0.875 0 0  0.90625 0 0  0.9375 0 0  0.96875 0 0  1 0 0  0 0.03125 0  0.03125 0.03125 0  0.0625 0.03125 0  0.09375 0.03125 0  0.125 0.03125 0  0.15625 0.03125 0  0.1875 0.03125 0  0.21875 0.03125 0  0.25 0.03125 0  0.28125 0.03125 0  0.3125 0.03125 0  0.34375 0.03125 0  0.375 0.03125 0  0.40625 0.03125 0  0.4375 0.03125 0  0.46875 0.03125 0  0.5 0.03125 0  0.53125 0.03125 0  0.5625 0.03125 0  0.59375 0.03125 0  0.625 0.03125 0  0.65625 0.03125 0  0.6875 0.03125 0  0.71875 0.03125 0  0.75 0.03125 0  0.78125 0.03125 0  0.8125 0.03125 0  0.84375 0.03125 0  0.875 0.03125 0  0.90625 0.03125 0  0.9375 0.03125 0  0.96875 0.03125 0  1 0.03125 0  0 0.0625 0  0.03125 0.0625 0  0.0625 0.0625 0  0.09375 0.0625 0  0.125 0.0625 0  0.15625 0.0625 0  0.1875 0.0625 0  0.21875 0.0625 0  0.25 0.0625 0  0.28125 0.0625 0  0.3125 0.0625 0  0.34375 0.0625 0  0.375 0.0625 0  0.40625 0.0625 0  0.4375 0.0625 0  0.46875 0.0625 0  0.5 0.0625 0  0.53125 0.0625 0  0.5625 0.0625 0  0.59375 0.0625 0  0.625 0.0625 0  0.65625 0.0625 0  0.6875 0.0625 0  0.71875 0.0625 0  0.75 0.0625 0  0.78125 0.0625 0  0.8125 0.0625 0  0.84375 0.0625 0  0.875 0.0625 0  0.90625 0.0625 0  0.9375 0.0625 0  0.96875 0.0625 0  1 0.0625 0  0 0.09375 0  0.03125 0.09375 0  0.0625 0.09375 0  0.09375 0.09375 0  0.125 0.09375 0  0.15625 0.09375 0  0.1875 0.09375 0  0.21875 0.09375 0  0.25 0.09375 0  0.28125 0.09375 0  0.3125 0.09375 0  0.34375 0.09375 0  0.375 0.09375 0  0.40625 0.09375 0  0.4375 0.09375 0  0.46875 0.09375 0  0.5 0.09375 0  0.53125 0.09375 0  0.5625 0.09375 0  0.59375 0.09375 0  0.625 0.09375 0  0.65625 0.09375 0  0.6875 0.09375 0  0.71875 0.09375 0  0.75 0.09375 0  0.78125 0.09375 0  0.8125 0.09375 0  0.84375 0.09375 0  0.875 0.09375 0  0.90625 0.09375 0  0.9375 0.09375 0  0.96875 0.09375 0  1 0.09375 0  0 0.125 0  0.03125 0.125 0  0.0625 0.125 0  0.09375 0.125 0  0.125 0.125 0  0.15625 0.125 0  0.1875 0.125 0  0.21875 0.125 0  0.25 0.125 0  0.28125 0.125 0  0.3125 0.125 0  0.34375 0.125 0  0.375 0.125 0  0.40625 0.125 0  0.4375 0.125 0  0.46875 0.125 0  0.5 0.125 0  0.53125 0.125 0  0.5625 0.125 0  0.59375 0.125 0  0.625 0.125 0  0.65625 0.125 0  0.6875 0.125 0  0.71875 0.125 0  0.75 0.125 0  0.78125 0.125 0  0.8125 0.125 0  0.84375 0.125 0  0.875 0.125 0  0.90625 0.125 0  0.9375 0.125 0  0.96875 0.125 0  1 0.125 0  0 0.15625 0  0.03125 0.15625 0  0.0625 0.15625 0  0.09375 0.15625 0  0.125 0.15625 0  0.15625 0.15625 0  0.1875 0.15625 0  0.21875 0.15625 0  0.25 0.15625 0  0.28125 0.15625 0  0.3125 0.15625 0  0.34375 0.15625 0  0.375 0.15625 0  0.40625 0.15625 0  0.4375 0.15625 0  0.46875 0.15625 0  0.5 0.15625 0  0.53125 0.15625 0  0.5625 0.15625 0  0.59375 0.15625 0  0.625 0.15625 0  0.65625 0.15625 0  0.6875 0.15625 0  0.71875 0.15625 0  0.75 0.15625 0  0.78125 0.15625 0  0.8125 0.15625 0  0.84375 0.15625 0  0.875 0.15625 0  0.90625 0.15625 0  0.9375 0.15625 0  0.96875 0.15625 0  1 0.15625 0  0 0.1875 0  0.03125 0.1875 0  0.0625 0.1875 0  0.09375 0.1875 0  0.125 0.1875 0  0.15625 0.1875 0  0.1875 0.1875 0  0.21875 0.1875 0  0.25 0.1875 0  0.28125 0.1875 0  0.3125 0.1875 0  0.34375 0.1875 0  0.375 0.1875 0  0.40625 0.1875 0  0.4375 0.1875 0  0.46875 0.1875 0  0.5 0.1875 0  0.53125 0.1875 0  0.5625 0.1875 0  0.59375 0.1875 0  0.625 0.1875 0  0.65625 0.1875 0  0.6875 0.1875 0  0.71875 0.1875 0  0.75 0.1875 0  0.78125 0.1875 0  0.8125 0.1875 0  0.84375 0.1875 0  0.875 0.1875 0  0.90625 0.1875 0  0.9375 0.1875 0  0.96875 0.1875 0  1 0.1875 0  0 0.21875 0  0.03125 0.21875 0  0.0625 0.21875 0  0.09375 0.21875 0  0.125 0.21875 0  0.15625 0.21875 0  0.1875 0.21875 0  0.21875 0.21875 0  0.25 0.21875 0  0.28125 0.21875 0  0.3125 0.21875 0  0.34375 0.21875 0  0.375 0.21875 0  0.40625 0.21875 0  0.4375 0.21875 0  0.46875 0.21875 0  0.5 0.21875 0  0.53125 0.21875 0  0.5625 0.21875 0  0.59375 0.21875 0  0.625 0.21875 0  0.65625 0.21875 0  0.6875 0.21875 0  0.71875 0.21875 0  0.75 0.21875 0  0.78125 0.21875 0  0.8125 0.21875 0  0.84375 0.21875 0  0.875 0.21875 0  0.90625 0.21875 0  0.9375 0.21875 0  0.96875 0.21875 0  1 0.21875 0  0 0.25 0  0.03125 0.25 0  0.0625 0.25 0  0.09375 0.25 0  0.125 0.25 0  0.15625 0.25 0  0.1875 0.25 0  0.21875 0.25 0  0.25 0.25 0  0.28125 0.25 0  0.3125 0.25 0  0.34375 0.25 0  0.375 0.25 0  0.40625 0.25 0  0.4375 0.25 0  0.46875 0.25 0  0.5 0.25 0  0.53125 0.25 0  0.5625 0.25 0  0.59375 0.25 0  0.625 0.25 0  0.65625 0.25 0  0.6875 0.25 0  0.71875 0.25 0  0.75 0.25 0  0.78125 0.25 0  0.8125 0.25 0  0.84375 0.25 0  0.875 0.25 0  0.90625 0.25 0  0.9375 0.25 0  0.96875 0.25 0  1 0.25 0  0 0.28125 0  0.03125 0.28125 0  0.0625 0.28125 0  0.09375 0.28125 0  0.125 0.28125 0  0.15625 0.28125 0  0.1875 0.28125 0  0.21875 0.28125 0  0.25 0.28125 0  0.28125 0.28125 0  0.3125 0.28125 0  0.34375 0.28125 0  0.375 0.28125 0  0.40625 0.28125 0  0.4375 0.28125 0  0.46875 0.28125 0  0.5 0.28125 0  0.53125 0.28125 0  0.5625 0.28125 0  0.59375 0.28125 0  0.625 0.28125 0  0.65625 0.28125 0  0.6875 0.28125 0  0.71875 0.28125 0  0.75 0.28125 0  0.78125 0.28125 0  0.8125 0.28125 0  0.84375 0.28125 0  0.875 0.28125 0  0.90625 0.28125 0  0.9375 0.28125 0  0.96875 0.28125 0  1 0.28125 0  0 0.3125 0  0.03125 0.3125 0  0.0625 0.3125 0  0.09375 0.3125 0  0.125 0.3125 0  0.15625 0.3125 0  0.1875 0.3125 0  0.21875 0.3125 0  0.25 0.3125 0  0.28125 0.3125 0  0.3125 0.3125 0  0.34375 0.3125 0  0.375 0.3125 0  0.40625 0.3125 0  0.4375 0.3125 0  0.46875 0.3125 0  0.5 0.3125 0  0.53125 0.3125 0  0.5625 0.3125 0  0.59375 0.3125 0  0.625 0.3125 0  0.65625 0.3125 0  0.6875 0.3125 0  0.71875 0.3125 0  0.75 0.3125 0  0.78125 0.3125 0  0.8125 0.3125 0  0.84375 0.3125 0  0.875 0.3125 0  0.90625 0.3125 0  0.9375 0.3125 0  0.96875 0.3125 0  1 0.3125 0  0 0.34375 0  0.03125 0.34375 0  0.0625 0.34375 0  0.09375 0.34375 0  0.125 0.34375 0  0.15625 0.34375 0  0.1875 0.34375 0  0.21875 0.34375 0  0.25 0.34375 0  0.28125 0.34375 0  0.3125 0.34375 0  0.34375 0.34375 0  0.375 0.34375 0  0.40625 0.34375 0  0.4375 0.34375 0  0.46875 0.34375 0  0.5 0.34375 0  0.53125 0.34375 0  0.5625 0.34375 0  0.59375 0.34375 0  0.625 0.34375 0  0.65625 0.34375 0  0.6875 0.34375 0  0.71875 0.34375 0  0.75 0.34375 0  0.78125 0.34375 0  0.8125 0.34375 0  0.84375 0.34375 0  0.875 0.34375 0  0.90625 0.34375 0  0.9375 0.34375 0  0.96875 0.34375 0  1 0.34375 0  0 0.375 0  0.03125 0.375 0  0.0625 0.375 0  0.09375 0.375 0  0.125 0.375 0  0.15625 0.375 0  0.1875 0.375 0  0.21875 0.375 0  0.25 0.375 0  0.28125 0.375 0  0.3125 0.375 0  0.34375 0.375 0  0.375 0.375 0  0.40625 0.375 0  0.4375 0.375 0  0.46875 0.375 0  0.5 0.375 0  0.53125 0.375 0  0.5625 0.375 0  0.59375 0.375 0  0.625 0.375 0  0.65625 0.375 0  0.6875 0.375 0  0.71875 0.375 0  0.75 0.375 0  0.78125 0.375 0  0.8125 0.375 0  0.84375 0.375 0  0.875 0.375 0  0.90625 0.375 0  0.9375 0.375 0  0.96875 0.375 0  1 0.375 0  0 0.40625 0  0.03125 0.40625 0  0.0625 0.40625 0  0.09375 0.40625 0  0.125 0.40625 0  0.15625 0.40625 0  0.1875 0.40625 0  0.21875 0.40625 0  0.25 0.40625 0  0.28125 0.40625 0  0.3125 0.40625 0  0.34375 0.40625 0  0.375 0.40625 0  0.40625 0.40625 0  0.4375 0.40625 0  0.46875 0.40625 0  0.5 0.40625 0  0.53125 0.40625 0  0.5625 0.40625 0  0.59375 0.40625 0  0.625 0.40625 0  0.65625 0.40625 0  0.6875 0.40625 0  0.71875 0.40625 0  0.75 0.40625 0  0.78125 0.40625 0  0.8125 0.40625 0  0.84375 0.40625 0  0.875 0.40625 0  0.90625 0.40625 0  0.9375 0.40625 0  0.96875 0.40625 0  1 0.40625 0  0 0.4375 0  0.03125 0.4375 0  0.0625 0.4375 0  0.09375 0.4375 0  0.125 0.4375 0  0.15625 0.4375 0  0.1875 0.4375 0  0.21875 0.4375 0  0.25 0.4375 0  0.28125 0.4375 0  0.3125 0.4375 0  0.34375 0.4375 0  0.375 0.4375 0  0.40625 0.4375 0  0.4375 0.4375 0  0.46875 0.4375 0  0.5 0.4375 0  0.53125 0.4375 0  0.5625 0.4375 0  0.59375 0.4375 0  0.625 0.4375 0  0.65625 0.4375 0  0.6875 0.4375 0  0.71875 0.4375 0  0.75 0.4375 0  0.78125 0.4375 0  0.8125 0.4375 0  0.84375 0.4375 0  0.875 0.4375 0  0.90625 0.4375 0  0.9375 0.4375 0  0.96875 0.4375 0  1 0.4375 0  0 0.46875 0  0.03125 0.46875 0  0.0625 0.46875 0  0.09375 0.46875 0  0.125 0.46875 0  0.15625 0.46875 0  0.1875 0.46875 0  0.21875 0.46875 0  0.25 0.46875 0  0.28125 0.46875 0  0.3125 0.46875 0  0.34375 0.46875 0  0.375 0.46875 0  0.40625 0.46875 0  0.4375 0.46875 0  0.46875 0.46875 0  0.5 0.46875 0  0.53125 0.46875 0  0.5625 0.46875 0  0.59375 0.46875 0  0.625 0.46875 0  0.65625 0.46875 0  0.6875 0.46875 0  0.71875 0.46875 0  0.75 0.46875 0  0.78125 0.46875 0  0.8125 0.46875 0  0.84375 0.46875 0  0.875 0.46875 0  0.90625 0.46875 0  0.9375 0.46875 0  0.96875 0.46875 0  1 0.46875 0  0 0.5 0  0.03125 0.5 0  0.0625 0.5 0  0.09375 0.5 0  0.125 0.5 0  0.15625 0.5 0  0.1875 0.5 0  0.21875 0.5 0  0.25 0.5 0  0.28125 0.5 0  0.3125 0.5 0  0.34375 0.5 0  0.375 0.5 0  0.40625 0.5 0  0.4375 0.5 0  0.46875 0.5 0  0.5 0.5 0  0.53125 0.5 0  0.5625 0.5 0  0.59375 0.5 0  0.625 0.5 0  0.65625 0.5 0  0.6875 0.5 0  0.71875 0.5 0  0.75 0.5 0  0.78125 0.5 0  0.8125 0.5 0  0.84375 0.5 0  0.875 0.5 0  0.90625 0.5 0  0.9375 0.5 0  0.96875 0.5 0  1 0.5 0  0 0.53125 0  0.03125 0.53125 0  0.0625 0.53125 0  0.09375 0.53125 0  0.125 0.53125 0  0.15625 0.53125 0  0.1875 0.53125 0  0.21875 0.53125 0  0.25 0.53125 0  0.28125 0.53125 0  0.3125 0.53125 0  0.34375 0.53125 0  0.375 0.53125 0  0.40625 0.53125 0  0.4375 0.53125 0  0.46875 0.53125 0  0.5 0.53125 0  0.53125 0.53125 0  0.5625 0.53125 0  0.59375 0.53125 0  0.625 0.53125 0  0.65625 0.53125 0  0.6875 0.53125 0  0.71875 0.53125 0  0.75 0.53125 0  0.78125 0.531
[...]
<PointData  Scalars="phi"> 
<DataArray  type="Float64"  Name="phi"  format="ascii">0.0000000000000000e+00  0.0000000000000000e+00  0.0000000000000000e+00  0.0000000000000000e+00  0.0000000000000000e+00  0.0000000000000000e+00  0.0000000000000000e+00  0.0000000000000000e+00  0.0000000000000000e+00  0.0000000000000000e+00  0.0000000000000000e+00  0.0000000000000000e+00  0.0000000000000000e+00  0.0000000000000000e+00  0.0000000000000000e+00  0.0000000000000000e+00  0.0000000000000000e+00  0.0000000000000000e+00  0.0000000000000000e+00  0.0000000000000000e+00  0.0000000000000000e+00  0.0000000000000000e+00  0.0000000000000000e+00  0.0000000000000000e+00  0.0000000000000000e+00  0.0000000000000000e+00  0.0000000000000000e+00  0.0000000000000000e+00  0.0000000000000000e+00  0.0000000000000000e+00  0.0000000000000000e+00  0.0000000000000000e+00  0.0000000000000000e+00  0.0000000000000000e+00  -5.5869567536990447e-15  5.2193860055946392e-04  2.0568850550890072e-03  5.0448051039921494e-03  9.8536519785184899e-03  1.6761052296926184e-02  2.5939502019266238e-02  3.7445750548343468e-02  5.1214851269720904e-02  6.7059160027363313e-02  8.4672363326904948e-02  1.0363841835482429e-01  1.2344509302659769e-01  1.4350161290881319e-01  1.6315975963203816e-01  1.8173762841343122e-01  1.9854514575712423e-01  2.1291037639761834e-01  2.2420561391070293e-01  2.3187225355668528e-01  2.3544348882723695e-01  2.3456395343121220e-01  2.2900554541428703e-01  2.1867881614168405e-01  2.0363947999324208e-01  1.8408979774154438e-01  1.6037480864072806e-01  1.3297364679861823e-01  1.0248652904283290e-01  6.9618624748616409e-02  3.5163543715229506e-02  0.0000000000000000e+00  0.0000000000000000e+00  -5.2193860058150359e-04  -2.1747597342180395e-14  2.5468973299396652e-03  7.9989732858889995e-03  1.7093436420878318e-02  3.0387791651927905e-02  4.8230232389310929e-02  7.0738404349538764e-02  9.7787472859987262e-02  1.2900804740409982e-01  1.6379412450941261e-01  2.0132081443881600e-01  2.4057123196111735e-01  2.8037157069142027e-01  3.1943305755629225e-01  3.5639921108173173e-01  3.8989661485632515e-01  4.1858727387586953e-01  4.4122055213970035e-01  4.5668269766213176e-01  4.6404204592590681e-01  4.6258815185602897e-01  4.5186332814498409e-01  4.3168535655550055e-01  4.0216047958910145e-01  3.6368616346591898e-01  3.1694354284662590e-01  2.6287991297090796e-01  2.0268213933945722e-01  1.3774243812999723e-01  6.9618624748616562e-02  0.0000000000000000e+00  0.0000000000000000e+00  -2.0568850551213624e-03  -2.5468973300035343e-03  -4.6898076703169425e-14  6.9046396184814559e-03  1.9275402747025588e-02  3.7953265060228114e-02  6.3467486713238860e-02  9.6003808260789636e-02  1.3538651640707078e-01  1.8107519473206954e-01  2.3217639639765653e-01  2.8746988986320005e-01  3.4544855667355928e-01  4.0437048395307484e-01  4.6232131371579005e-01  5.1728450484738464e-01  5.6721684723500632e-01  6.1012635324226228e-01  6.4414954791022949e-01  6.6762519009194654e-01  6.7916158205199673e-01  6.7769486045511862e-01  6.6253599865118973e-01  6.3340467665196110e-01  5.9044867612828877e-01  5.3424801588545479e-01  4.6580363981306361e-01  3.8651108336155710e-01  2.9812014740310949e-01  2.0268213933945797e-01  1.0248652904283351e-01  0.0000000000000000e+00  0.0000000000000000e+00  -5.0448051040340343e-03  -7.9989732859716937e-03  -6.9046396186028917e-03  -7.8596316182555346e-14  1.4196857721170714e-02  3.6815063278602358e-02  6.8572184872870159e-02  1.0973198494239643e-01  1.6008049307424860e-01  2.1892146389175204e-01  2.8509153055118142e-01  3.5699459454482757e-01  4.3265423967116384e-01  5.0978225125585763e-01  5.8586068815217784e-01  6.5823441909255120e-01  7.2421061727245906e-01  7.8116142378920217e-01  8.2662585277297396e-01  8.5840702423121096e-01  8.7466097452164915e-01  8.7397360298177007e-01  8.5542275507831445e-01  8.1862300092887008e-01  7.6375132207910779e-01  6.9155264382333770e-01  6.0332491587865267e-01  5.0088421598972066e-01  3.8651108336155915e-01  2.6287991297091029e-01  1.3297364679861973e-01  0.0000000000000000e+00  0.0000000000000000e+00  -9.8536519785689131e-03  -1.7093436420977871e-02  -1.9275402747171752e-02  -1.4196857721359857e-02  -1.1374007416577979e-13  2.4737764737427035e-02  6.0930942622058053e-02  1.0893347895868649e-01  1.6850888310538747e-01  2.3882426401355544e-01  3.1846865976437527e-01  4.0549509773675541e-01  4.9748489549854269e-01  5.9163184206947972e-01  6.8484311851003943e-01  7.7385315599811921e-01  8.5534611420521256e-01  9.2608231283725040e-01  9.8302377828640031e-01  1.0234540822105536e+00  1.0450878491510092e+00  1.0461656885200337e+00  1.0255308480608480e+00  9.8268457040515711e-01  9.1781793500411735e-01  8.3181885262101907e-01  7.2625381195988226e-01  6.0332491587865689e-01  4.6580363981306938e-01  3.1694354284663095e-01  1.6037480864073095e-01  0.0000000000000000e+00  0.0000000000000000e+00  -1.6761052296983964e-02  -3.0387791652041977e-02  -3.7953265060395563e-02  -3.6815063278818942e-02  -2.4737764737687355e-02  -1.4882764573719642e-13  3.8519060242916126e-02  9.1277302083507400e-02  1.5803393205487171e-01  2.3784195807081759e-01  3.2906934342287830e-01  4.2944817458870954e-01  5.3615009186463181e-01  6.4588520577480524e-01  7.5502080155869056e-01  8.5971535440478264e-01  9.5606276964015691e-01  1.0402413483724118e+00  1.1086617761977307e+00  1.1581084485150099e+00  1.1858686802760787e+00  1.1898447917763377e+00  1.1686446983228855e+00  1.1216474356913895e+00  1.0490409937589493e+00  9.5183087022435353e-01  8.3181885262102673e-01  6.9155264382334891e-01  5.3424801588546611e-01  3.6368616346592797e-01  1.8408979774154935e-01  0.0000000000000000e+00  0.0000000000000000e+00  -2.5939502019330048e-02  -4.8230232389436883e-02  -6.3467486713423699e-02  -6.8572184873109121e-02  -6.0930942622345025e-02  -3.8519060243243919e-02  -1.8026649413282503e-13  5.5202664655792710e-02  1.2686378466542148e-01  2.1394743383757039e-01  3.1463049807718535e-01  4.2635830986369683e-01  5.4593033551454151e-01  6.6961275052675040e-01  7.9327368613176774e-01  9.1253603881111978e-01  1.0229420383775736e+00  1.1201232962810956e+00  1.1999698224533302e+00  1.2587915153993485e+00  1.2934658958966621e+00  1.3015663594520104e+00  1.2814659471913843e+00  1.2324125511014892e+00  1.1545725418503863e+00  1.0490409937589611e+00  9.1781793500413600e-01  7.6375132207912855e-01  5.9044867612830809e-01  4.0216047958911594e-01  2.0363947999324983e-01  0.0000000000000000e+00  0.0000000000000000e+00  -3.7445750548411885e-02  -7.0738404349673781e-02  -9.6003808260987658e-02  -1.0973198494265227e-01  -1.0893347895899344e-01  -9.1277302083857564e-02  -5.5202664656177292e-02  -2.0471809241599905e-13  7.4142026418124896e-02  1.6612551648236787e-01  2.7396894648162540e-01  3.9486856059704245e-01  5.2529333897504715e-01  6.6111002093846483e-01  7.9773348990916959e-01  9.3029683161916044e-01  1.0538345996218001e+00  1.1634722920605090e+00  1.2546147816627895e+00  1.3231264572395032e+00  1.3654961290980658e+00  1.3789803115184307e+00  1.3617193012711657e+00  1.3128214910352822e+00  1.2324125511015058e+00  1.1216474356914172e+00  9.8268457040519019e-01  8.1862300092890339e-01  6.3340467665199029e-01  4.3168535655552198e-01  2.1867881614169538e-01  0.0000000000000000e+00  0.0000000000000000e+00  -5.1214851269792430e-02  -9.7787472860128372e-02  -1.3538651640727761e-01  -1.6008049307451561e-01  -1.6850888310570755e-01  -1.5803393205523630e-01  -1.2686378466582110e-01  -7.4142026418549306e-02  -2.1933581646431457e-13  9.4430296996778129e-02  2.0704340115893602e-01  3.3482677360231039e-01  4.7396398455529937e-01  6.1997085432285259e-01  7.6785942785749117e-01  9.1232357070848935e-01  1.0479391221925813e+00  1.1693709601480031e+00  1.2715790431185350e+00  1.3500155115170638e+00  1.4008052487842109e+00  1.4209029146342420e+00  1.4082203417756780e+00  1.3617193012711883e+00  1.2814659471914229e+00  1.1686446983229337e+00  1.0255308480608996e+00  8.5542275507836329e-01  6.6253599865123092e-01  4.5186332814501373e-01  2.2900554541430257e-01  0.0000000000000000e+00  0.0000000000000000e+00  -6.7059160027436449e-02  -1.2900804740424407e-01  -1.8107519473228084e-01  -2.1892146389202455e-01  -2.3882426401388163e-01  -2.3784195807118846e-01  -2.1394743383797593e-01  -1.6612551648279733e-01  -9.4430296997220470e-02  -2.2205021524664711e-13  1.1497134315065505e-01  2.4730447763787730e-01  3.9294518851711779e-01  5.4711012713884477e-01  7.0446269980302811e-01  8.5931234397348355e-01  1.0058295988916686e+00  1.1382687497258070e+00  1.2511895117486223e+00  1.3396692356273008e+00  1.3994974563276474e+00  1.4273452634135646e+00  1.4209029146342713e+00  1.3789803115184820e+00  1.3015663594520759e+00  1.1898447917764106e+00  1.0461656885201069e+00  8.7397360298183691e-01  6.7769486045517391e-01  4.6258815185606827e-01  2.3456395343123260e-01  0.0000000000000000e+00  0.0000000000000000e+00  -8.4672363326978251e-02  -1.6379412450955710e-01  -2.3217639639786802e-01  -2.8509153055145381e-01  -3.1846865976470073e-01  -3.2906934342324756e-01  -3.1463049807758803e-01  -2.7396894648205022e-01  -2.0704340115937175e-01  -1.1497134315109023e-01  -2.1174323816013677e-13  1.3456759767515275e-01  2.8448876261050093e-01  4.4473514599548047e-01  6.0967875705062502e-01  7.7330293565446107e-01  9.2943023003635550e-01  1.0719584633107442e+00  1.1950959385189077e+00  1.2935867448479330e+00  1.3629174874692691e+00  1.3994974563276830e+00  1.4008052487842755e+00  1.3654961290981507e+00  1.2934658958967589e+00  1.1858686802761798e+00  1.0450878491511069e+00  8.7466097452173641e-01  6.7916158205206778e-01  4.6404204592595688e-01  2.3544348882726274e-01  0.0000000000000000e+00  0.0000000000000000e+00  -1.0363841835489634e-01  -2.0132081443895800e-01  -2.8746988986340771e-01  -3.5699459454509452e-01  -4.0549509773707376e-01  -4.2944817458906970e-01  -4.2635830986408829e-01  -3.9486856059745373e-01  -3.3482677360272978e-01  -2.4730447763829350e-01  -1.3456759767555423e-01  -1.8826288909655617e-13  1.5201729960228560e-01  3.1626671661578998e-01  4.8688837759486275e-01  6.5760070014868977e-01  8.2193884872598810e-01  9.7350193916656902e-01  1.1061995123148121e+00  1.2144878079746406e+00  1.2935867448479748e+00  1.3396692356273778e+00  1.3500155115171679e+00  1.3231264572396255e+00  1.2587915153994804e+00  1.1581084485151423e+00  1.0234540822106784e+00  8.5840702423132087e-01  6.6762519009203480e-01  4.5668269766219349e-01  2.3187225355671703e-01  0.0000000000000000e+00  0.0000000000000000e+00  -1.2344509302666722e-01  -2.4057123196125427e-01  -3.4544855667375918e-01  -4.3265423967142047e-01  -4.9748489549884795e-01  -5.3615009186497598e-01  -5.4593033551491399e-01  -5.2529333897543662e-01  -4.7396398455569394e-01  -3.9294518851750593e-01  -2.8448876261087130e-01  -1.5201729960262797e-01  -1.5259645183523211e-13  1.6621286367363108e-01  3.4059054927778054e-01  5.1664986009993130e-01  6.8770185365192438e-01  8.4710779476056597e-01  9.8853453540136127e-01  1.1061995123148596e+00  1.1950959385189961e+00  1.2511895117487444e+00  1.2715790431186820e+00  1.2546147816629520e+00  1.1999698224534991e+00  1.1086617761978965e+00  9.8302377828655374e-01  8.2662585277310741e-01  6.4414954791033596e-01  4.4122055213977440e-01  2.2420561391074087e-01  0.0000000000000000e+00  0.0000000000000000e+00  -1.4350161290887908e-01  -2.8037157069154983e-01  -4.0437048395326369e-01  -5.0978225125609966e-01  -5.9163184206976649e-01  -6.4588520577512765e-01  -6.6961275052709746e-01  -6.6111002093882520e-01  -6.1997085432321486e-01  -5.4711012713919716e-01  -4.4473514599581199e-01  -3.1626671661609046e-01  -1.6621286367389171e-01  -1.0678650206077540e-13  1.7623201472981434e-01  3.5586309106648362e-01  5.3204547371280553e-01  6.9796597179216480e-01  8.4710779476061826e-01  9.7350193916666805e-01  1.0719584633108830e+00  1.1382687497259774e+00  1.1693709601481961e+00  1.1634722920607143e+00  1.1201232962813039e+00  1.0402413483726121e+00  9.2608231283743359e-01  7.8116142378935982e-01  6.1012635324238707e-01  4.1858727387595612e-01  2.1291037639766267e-01  0.0000000000000000e+00  0.0000000000000000e+00  -1.6315975963209944e-01  -3.1943305755641271e-01  -4.6232131371596541e-01  -5.8586068815240178e-01  -6.8484311851030388e-01  -7.5502080155898610e-01  -7.9327368613208393e-01  -7.9773348990949522e-01  -7.6785942785781502e-01  -7.0446269980333864e-01  -6.0967875705091168e-01  -4.8688837759511561e-01  -3.4059054927799098e-01  -1.7623201472997568e-01  -5.3794067463283050e-14  1.8141393351538246e-01  3.6106986126313051e-01  5.3204547371286093e-01  6.8770185365203140e-01  8.2193884872614076e-01  9.2943023003654612e-01  1.0058295988918884e+00  1.0479391221928207e+00  1.0538345996220486e+00  1.0229420383778205e+00  9.5606276964039150e-01  8.5534611420542517e-01  7.2421061727264080e-01  5.6721684723514976e-01  3.8989661485642413e-01  1.9854514575717475e-01  0.0000000000000000e+00  0.0000000000000000e+00  -1.8173762841348717e-01  -3.5639921108184153e-01  -5.1728450484754407e-01  -6.5823441909275426e-01  -7.7385315599835802e-01  -8.5971535440504798e-01  -9.1253603881140122e-01  -9.3029683161944710e-01  -9.1232357070877024e-01  -8.5931234397374778e-01  -7.7330293565469854e-01  -6.5760070014889072e-01  -5.1664986010008773e-01  -3.5586309106658953e-01  -1.8141393351543361e-01  2.9496393008418215e-15  1.8141393351543944e-01  3.5586309106659536e-01  5.1664986010009351e-01  6.5760070014889593e-01  7.7330293565470298e-01  8.5931234397375200e-01  9.1232357070877401e-01  9.3029683161945065e-01  9.1253603881140433e-01  8.5971535440505042e-01  7.7385315599835991e-01  6.5823441909275593e-01  5.1728450484754529e-01  3.5639921108184236e-01  1.8173762841348756e-01  0.0000000000000000e+00  0.0000000000000000e+00  -1.9854514575717436e-01  -3.8989661485642335e-01  -5.6721684723514865e-01  -7.2421061727263936e-01  -8.5534611420542350e-01  -9.5606276964038928e-01  -1.0229420383778178e+00  -1.0538345996220451e+00  -1.0479391221928169e+00  -1.0058295988918839e+00  -9.2943023003654135e-01  -8.2193884872613521e-01  -6.8770185365202541e-01  -5.3204547371285493e-01  -3.6106986126312463e-01  -1.8141393351537669e-01  5.9518763808754409e-14  1.7623201472998135e-01  3.4059054927799626e-01  4.8688837759512033e-01  6.0967875705091568e-01  7.0446269980334275e-01  7.6785942785781880e-01  7.9773348990949877e-01  7.9327368613208704e-01  7.5502080155898876e-01  6.8484311851030610e-01  5.8586068815240355e-01  4.6232131371596663e-01  3.1943305755641360e-01  1.6315975963209992e-01  0.0000000000000000e+00  0.0000000000000000e+00  -2.1291037639766230e-01  -4.1858727387595551e-01  -6.1012635324238640e-01  -7.8116142378935871e-01  -9.2608231283743225e-01  -1.0402413483726103e+00  -1.1201232962813015e+00  -1.1634722920607117e+00  -1.1693709601481925e+00  -1.1382687497259734e+00  -1.0719584633108781e+00  -9.7350193916666250e-01  -8.4710779476061215e-01  -6.9796597179215869e-01  -5.3204547371279975e-01  -3.5586309106647784e-01  -1.7623201472980865e-01  1.1228613203486044e-13  1.6621286367389682e-01  3.1626671661609501e-01  4.4473514599581615e-01  5.4711012713920104e-01  6.1997085432321852e-01  6.6111002093882854e-01  6.6961275052710034e-01  6.4588520577513009e-01  5.9163184206976860e-01  5.0978225125610144e-01  4.0437048395326503e-01  2.8037157069155066e-01  1.4350161290887947e-01  0.0000000000000000e+00  0.0000000000000000e+00  -2.2420561391074062e-01  -4.4122055213977396e-01  -6.4414954791033541e-01  -8.2662585277310641e-01  -9.8302377828655318e-01  -1.1086617761978950e+00  -1.1999698224534976e+00  -1.2546147816629496e+00  -1.2715790431186789e+00  -1.2511895117487406e+00  -1.1950959385189912e+00  -1.1061995123148545e+00  -9.8853453540135583e-01  -8.4710779476056008e-01  -6.8770185365191860e-01  -5.1664986009992564e-01  -3.4059054927777488e-01  -1.6621286367362564e-01  1.5764987965614900e-13  1.5201729960263249e-01  2.8448876261087552e-01  3.9294518851750981e-01  4.7396398455569755e-01  5.2529333897543973e-01  5.4593033551491676e-01  5.3615009186497842e-01  4.9748489549885005e-01  4.3265423967142214e-01  3.4544855667376045e-01  2.4057123196125507e-01  1.2344509302666763e-01  0.0000000000000000e+00  0.0000000000000000e+00  -2.3187225355671681e-01  -4.5668269766219316e-01  -6.6762519009203425e-01  -8.5840702423132009e-01  -1.0234540822106775e+00  -1.1581084485151409e+00  -1.2587915153994786e+00  -1.3231264572396229e+00  -1.3500155115171641e+00  -1.3396692356273734e+00  -1.2935867448479699e+00  -1.2144878079746353e+00  -1.1061995123148067e+00  -9.7350193916656325e-01  -8.2193884872598222e-01  -6.5760070014868388e-01  -4.8688837759485704e-01  -3.1626671661578443e-01  -1.5201729960228061e-01  1.9279752058399200e-13  1.3456759767555837e-01  2.4730447763829727e-01  3.3482677360273350e-01  3.9486856059745690e-01  4.2635830986409107e-01  4.2944817458907203e-01  4.0549509773707570e-01  3.5699459454509608e-01  2.8746988986340882e-01  2.0132081443895877e-01  1.0363841835489676e-01  0.0000000000000000e+00  0.0000000000000000e+00  -2.3544348882726263e-01  -4.6404204592595666e-01  -6.7916158205206734e-01  -8.7466097452173597e-01  -1.0450878491511060e+00  -1.1858686802761786e+00  -1.2934658958967571e+00  -1.3654961290981480e+00  -1.4008052487842715e+00  -1.3994974563276787e+00  -1.3629174874692640e+00  -1.2935867448479277e+00  -1.1950959385189024e+00  -1.0719584633107384e+00  -9.2943023003634961e-01  -7.7330293565445518e-01  -6.0967875705061902e-01  -4.4473514599547503e-01  -2.8448876261049594e-01  -1.3456759767514828e-01  2.1582486132281648e-13  1.1497134315109397e-01  2.0704340115937520e-01  2.7396894648205339e-01  3.1463049807759064e-01  3.2906934342324978e-01  3.1846865976470257e-01  2.8509153055145525e-01  2.3217639639786913e-01  1.6379412450955791e-01  8.4672363326978653e-02  0.0000000000000000e+00  0.0000000000000000e+00  -2.3456395343123249e-01  -4.6258815185606811e-01  -6.7769486045517358e-01  -8.7397360298183657e-01  -1.0461656885201063e+00  -1.1898447917764092e+00  -1.3015663594520743e+00  -1.3789803115184793e+00  -1.4209029146342678e+00  -1.4273452634135604e+00  -1.3994974563276430e+00  -1.3396692356272961e+00  -1.2511895117486169e+00  -1.1382687497258011e+00  -1.0058295988916623e+00  -8.5931234397347755e-01  -7.0446269980302234e-01  -5.4711012713883944e-01  -3.9294518851711313e-01  -2.4730447763787303e-01  -1.1497134315065108e-01  2.2572047090606282e-13  9.4430296997223814e-02  1.6612551648280038e-01  2.1394743383797854e-01  2.3784195807119066e-01  2.3882426401388340e-01  2.1892146389202602e-01  1.8107519473228195e-01  1.2900804740424485e-01  6.7059160027436851e-02  0.0000000000000000e+00  0.0000000000000000e+00  -2.2900554541430246e-01  -4.5186332814501351e-01  -6.6253599865123070e-01  -8.5542275507836285e-01  -1.0255308480608991e+00  -1.1686446983229328e+00  -1.2814659471914216e+00  -1.3617193012711859e+00  -1.4082203417756749e+00  -1.4209029146342385e+00  -1.4008052487842066e+00  -1.3500155115170589e+00  -1.2715790431185292e+00  -1.1693709601479974e+00  -1.0479391221925753e+00  -9.1232357070848358e-01  -7.6785942785748562e-01  -6.1997085432284771e-01  -4.7396398455529487e-01  -3.3482677360230634e-01  -2.0704340115893216e-01  -9.4430296996774618e-02  2.2254856835633842e-13  7.4142026418552165e-02  1.2686378466582354e-01  1.5803393205523836e-01  1.6850888310570927e-01  1.6008049307451699e-01  1.3538651640727861e-01  9.7787472860129121e-02  5.1214851269792812e-02  0.0000000000000000e+00  0.0000000000000000e+00  -2.1867881614169526e-01  -4.3168535655552182e-01  -6.3340467665198985e-01  -8.1862300092890306e-01  -9.8268457040518953e-01  -1.1216474356914161e+00  -1.2324125511015045e+00  -1.3128214910352798e+00  -1.3617193012711630e+00  -1.3789803115184269e+00  -1.3654961290980618e+00  -1.3231264572394985e+00  -1.2546147816627848e+00  -1.1634722920605034e+00  -1.0538345996217942e+00  -9.3029683161915466e-01  -7.9773348990916415e-01  -6.6111002093845983e-01  -5.2529333897504249e-01  -3.9486856059703840e-01  -2.7396894648162157e-01  -1.6612551648236451e-01  -7.4142026418121856e-02  2.0738790093038627e-13  5.5202664656179568