<?xml version="1.0"?>
<VTKFile type="UnstructuredGrid"  version="0.1"  >
<UnstructuredGrid>
<Piece  NumberOfPoints="1089" NumberOfCells="2048">
<Points>
<DataArray  type="Float64"  NumberOfComponents="3"  format="ascii">0 0 0  0.03125 0 0  0.0625 0 0  0.09375 0 0  0.125 0 0  0.15625 0 0  0.1875 0 0  0.21875 0 0  0.25 0 0  0.28125 0 0  0.3125 0 0  0.34375 0 0  0.375 0 0  0.40625 0 0  0.4375 0 0  0.46875 0 0  0.5 0 0  0.53125 0 0  0.5625 0 0  0.59375 0 0  0.625 0 0  0.65625 0 0  0.6875 0 0  0.71875 0 0  0.75 0 0  0.78125 0 0  0.8125 0 0  0.84375 0 0  0.875 0 0  0.90625 0 0  0.9375 0 0  0.96875 0 0  1 0 0  0 0.03125 0  0.03125 0.03125 0  0.0625 0.03125 0  0.09375 0.03125 0  0.125 0.03125 0  0.15625 0.03125 0  0.1875 0.03125 0  0.21875 0.03125 0  0.25 0.03125 0  0.28125 0.03125 0  0.3125 0.03125 0  0.34375 0.03125 0  0.375 0.03125 0  0.40625 0.03125 0  0.4375 0.03125 0  0.46875 0.03125 0  0.5 0.03125 0  0.53125 0.03125 0  0.5625 0.03125 0  0.59375 0.03125 0  0.625 0.03125 0  0.65625 0.03125 0  0.6875 0.03125 0  0.71875 0.03125 0  0.75 0.03125 0  0.78125 0.03125 0  0.8125 0.03125 0  0.84375 0.03125 0  0.875 0.03125 0  0.90625 0.03125 0  0.9375 0.03125 0  0.96875 0.03125 0  1 0.03125 0  0 0.0625 0  0.03125 0.0625 0  0.0625 0.0625 0  0.09375 0.0625 0  0.125 0.0625 0  0.15625 0.0625 0  0.1875 0.0625 0  0.21875 0.0625 0  0.25 0.0625 0  0.28125 0.0625 0  0.3125 0.0625 0  0.34375 0.0625 0  0.375 0.0625 0  0.40625 0.0625 0  0.4375 0.0625 0  0.46875 0.0625 0  0.5 0.0625 0  0.53125 0.0625 0  0.5625 0.0625 0  0.59375 0.0625 0  0.625 0.0625 0  0.65625 0.0625 0  0.6875 0.0625 0  0.71875 0.0625 0  0.75 0.0625 0  0.78125 0.0625 0  0.8125 0.0625 0  0.84375 0.0625 0  0.875 0.0625 0  0.90625 0.0625 0  0.9375 0.0625 0  0.96875 0.0625 0  1 0.0625 0  0 0.09375 0  0.03125 0.09375 0  0.0625 0.09375 0  0.09375 0.09375 0  0.125 0.09375 0  0.15625 0.09375 0  0.1875 0.09375 0  0.21875 0.09375 0  0.25 0.09375 0  0.28125 0.09375 0  0.3125 0.09375 0  0.34375 0.09375 0  0.375 0.09375 0  0.40625 0.09375 0  0.4375 0.09375 0  0.46875 0.09375 0  0.5 0.09375 0  0.53125 0.09375 0  0.5625 0.09375 0  0.59375 0.09375 0  0.625 0.09375 0  0.65625 0.09375 0  0.6875 0.09375 0  0.71875 0.09375 0  0.75 0.09375 0  0.78125 0.09375 0  0.8125 0.09375 0  0.84375 0.09375 0  0.875 0.09375 0  0.90625 0.09375 0  0.9375 0.09375 0  0.96875 0.09375 0  1 0.09375 0  0 0.125 0  0.03125 0.125 0  0.0625 0.125 0  0.09375 0.125 0  0.125 0.125 0  0.15625 0.125 0  0.1875 0.125 0  0.21875 0.125 0  0.25 0.125 0  0.28125 0.125 0  0.3125 0.125 0  0.34375 0.125 0  0.375 0.125 0  0.40625 0.125 0  0.4375 0.125 0  0.46875 0.125 0  0.5 0.125 0  0.53125 0.125 0  0.5625 0.125 0  0.59375 0.125 0  0.625 0.125 0  0.65625 0.125 0  0.6875 0.125 0  0.71875 0.125 0  0.75 0.125 0  0.78125 0.125 0  0.8125 0.125 0  0.84375 0.125 0  0.875 0.125 0  0.90625 0.125 0  0.9375 0.125 0  0.96875 0.125 0  1 0.125 0  0 0.15625 0  0.03125 0.15625 0  0.0625 0.15625 0  0.09375 0.15625 0  0.125 0.15625 0  0.15625 0.15625 0  0.1875 0.15625 0  0.21875 0.15625 0  0.25 0.15625 0  0.28125 0.15625 0  0.3125 0.15625 0  0.34375 0.15625 0  0.375 0.15625 0  0.40625 0.15625 0  0.4375 0.15625 0  0.46875 0.15625 0  0.5 0.15625 0  0.53125 0.15625 0  0.5625 0.15625 0  0.59375 0.15625 0  0.625 0.15625 0  0.65625 0.15625 0  0.6875 0.15625 0  0.71875 0.15625 0  0.75 0.15625 0  0.78125 0.15625 0  0.8125 0.15625 0  0.84375 0.15625 0  0.875 0.15625 0  0.90625 0.15625 0  0.9375 0.15625 0  0.96875 0.15625 0  1 0.15625 0  0 0.1875 0  0.03125 0.1875 0  0.0625 0.1875 0  0.09375 0.1875 0  0.125 0.1875 0  0.15625 0.1875 0  0.1875 0.1875 0  0.21875 0.1875 0  0.25 0.1875 0  0.28125 0.1875 0  0.3125 0.1875 0  0.34375 0.1875 0  0.375 0.1875 0  0.40625 0.1875 0  0.4375 0.1875 0  0.46875 0.1875 0  0.5 0.1875 0  0.53125 0.1875 0  0.5625 0.1875 0  0.59375 0.1875 0  0.625 0.1875 0  0.65625 0.1875 0  0.6875 0.1875 0  0.71875 0.1875 0  0.75 0.1875 0  0.78125 0.1875 0  0.8125 0.1875 0  0.84375 0.1875 0  0.875 0.1875 0  0.90625 0.1875 0  0.9375 0.1875 0  0.96875 0.1875 0  1 0.1875 0  0 0.21875 0  0.03125 0.21875 0  0.0625 0.21875 0  0.09375 0.21875 0  0.125 0.21875 0  0.15625 0.21875 0  0.1875 0.21875 0  0.21875 0.21875 0  0.25 0.21875 0  0.28125 0.21875 0  0.3125 0.21875 0  0.34375 0.21875 0  0.375 0.21875 0  0.40625 0.21875 0  0.4375 0.21875 0  0.46875 0.21875 0  0.5 0.21875 0  0.53125 0.21875 0  0.5625 0.21875 0  0.59375 0.21875 0  0.625 0.21875 0  0.65625 0.21875 0  0.6875 0.21875 0  0.71875 0.21875 0  0.75 0.21875 0  0.78125 0.21875 0  0.8125 0.21875 0  0.84375 0.21875 0  0.875 0.21875 0  0.90625 0.21875 0  0.9375 0.21875 0  0.96875 0.21875 0  1 0.21875 0  0 0.25 0  0.03125 0.25 0  0.0625 0.25 0  0.09375 0.25 0  0.125 0.25 0  0.15625 0.25 0  0.1875 0.25 0  0.21875 0.25 0  0.25 0.25 0  0.28125 0.25 0  0.3125 0.25 0  0.34375 0.25 0  0.375 0.25 0  0.40625 0.25 0  0.4375 0.25 0  0.46875 0.25 0  0.5 0.25 0  0.53125 0.25 0  0.5625 0.25 0  0.59375 0.25 0  0.625 0.25 0  0.65625 0.25 0  0.6875 0.25 0  0.71875 0.25 0  0.75 0.25 0  0.78125 0.25 0  0.8125 0.25 0  0.84375 0.25 0  0.875 0.25 0  0.90625 0.25 0  0.9375 0.25 0  0.96875 0.25 0  1 0.25 0  0 0.28125 0  0.03125 0.28125 0  0.0625 0.28125 0  0.09375 0.28125 0  0.125 0.28125 0  0.15625 0.28125 0  0.1875 0.28125 0  0.21875 0.28125 0  0.25 0.28125 0  0.28125 0.28125 0  0.3125 0.28125 0  0.34375 0.28125 0  0.375 0.28125 0  0.40625 0.28125 0  0.4375 0.28125 0  0.46875 0.28125 0  0.5 0.28125 0  0.53125 0.28125 0  0.5625 0.28125 0  0.59375 0.28125 0  0.625 0.28125 0  0.65625 0.28125 0  0.6875 0.28125 0  0.71875 0.28125 0  0.75 0.28125 0  0.78125 0.28125 0  0.8125 0.28125 0  0.84375 0.28125 0  0.875 0.28125 0  0.90625 0.28125 0  0.9375 0.28125 0  0.96875 0.28125 0  1 0.28125 0  0 0.3125 0  0.03125 0.3125 0  0.0625 0.3125 0  0.09375 0.3125 0  0.125 0.3125 0  0.15625 0.3125 0  0.1875 0.3125 0  0.21875 0.3125 0  0.25 0.3125 0  0.28125 0.3125 0  0.3125 0.3125 0  0.34375 0.3125 0  0.375 0.3125 0  0.40625 0.3125 0  0.4375 0.3125 0  0.46875 0.3125 0  0.5 0.3125 0  0.53125 0.3125 0  0.5625 0.3125 0  0.59375 0.3125 0  0.625 0.3125 0  0.65625 0.3125 0  0.6875 0.3125 0  0.71875 0.3125 0  0.75 0.3125 0  0.78125 0.3125 0  0.8125 0.3125 0  0.84375 0.3125 0  0.875 0.3125 0  0.90625 0.3125 0  0.9375 0.3125 0  0.96875 0.3125 0  1 0.3125 0  0 0.34375 0  0.03125 0.34375 0  0.0625 0.34375 0  0.09375 0.34375 0  0.125 0.34375 0  0.15625 0.34375 0  0.1875 0.34375 0  0.21875 0.34375 0  0.25 0.34375 0  0.28125 0.34375 0  0.3125 0.34375 0  0.34375 0.34375 0  0.375 0.34375 0  0.40625 0.34375 0  0.4375 0.34375 0  0.46875 0.34375 0  0.5 0.34375 0  0.53125 0.34375 0  0.5625 0.34375 0  0.59375 0.34375 0  0.625 0.34375 0  0.65625 0.34375 0  0.6875 0.34375 0  0.71875 0.34375 0  0.75 0.34375 0  0.78125 0.34375 0  0.8125 0.34375 0  0.84375 0.34375 0  0.875 0.34375 0  0.90625 0.34375 0  0.9375 0.34375 0  0.96875 0.34375 0  1 0.34375 0  0 0.375 0  0.03125 0.375 0  0.0625 0.375 0  0.09375 0.375 0  0.125 0.375 0  0.15625 0.375 0  0.1875 0.375 0  0.21875 0.375 0  0.25 0.375 0  0.28125 0.375 0  0.3125 0.375 0  0.34375 0.375 0  0.375 0.375 0  0.40625 0.375 0  0.4375 0.375 0  0.46875 0.375 0  0.5 0.375 0  0.53125 0.375 0  0.5625 0.375 0  0.59375 0.375 0  0.625 0.375 0  0.65625 0.375 0  0.6875 0.375 0  0.71875 0.375 0  0.75 0.375 0  0.78125 0.375 0  0.8125 0.375 0  0.84375 0.375 0  0.875 0.375 0  0.90625 0.375 0  0.9375 0.375 0  0.96875 0.375 0  1 0.375 0  0 0.40625 0  0.03125 0.40625 0  0.0625 0.40625 0  0.09375 0.40625 0  0.125 0.40625 0  0.15625 0.40625 0  0.1875 0.40625 0  0.21875 0.40625 0  0.25 0.40625 0  0.28125 0.40625 0  0.3125 0.40625 0  0.34375 0.40625 0  0.375 0.40625 0  0.40625 0.40625 0  0.4375 0.40625 0  0.46875 0.40625 0  0.5 0.40625 0  0.53125 0.40625 0  0.5625 0.40625 0  0.59375 0.40625 0  0.625 0.40625 0  0.65625 0.40625 0  0.6875 0.40625 0  0.71875 0.40625 0  0.75 0.40625 0  0.78125 0.40625 0  0.8125 0.40625 0  0.84375 0.40625 0  0.875 0.40625 0  0.90625 0.40625 0  0.9375 0.40625 0  0.96875 0.40625 0  1 0.40625 0  0 0.4375 0  0.03125 0.4375 0  0.0625 0.4375 0  0.09375 0.4375 0  0.125 0.4375 0  0.15625 0.4375 0  0.1875 0.4375 0  0.21875 0.4375 0  0.25 0.4375 0  0.28125 0.4375 0  0.3125 0.4375 0  0.34375 0.4375 0  0.375 0.4375 0  0.40625 0.4375 0  0.4375 0.4375 0  0.46875 0.4375 0  0.5 0.4375 0  0.53125 0.4375 0  0.5625 0.4375 0  0.59375 0.4375 0  0.625 0.4375 0  0.65625 0.4375 0  0.6875 0.4375 0  0.71875 0.4375 0  0.75 0.4375 0  0.78125 0.4375 0  0.8125 0.4375 0  0.84375 0.4375 0  0.875 0.4375 0  0.90625 0.4375 0  0.9375 0.4375 0  0.96875 0.4375 0  1 0.4375 0  0 0.46875 0  0.03125 0.46875 0  0.0625 0.46875 0  0.09375 0.46875 0  0.125 0.46875 0  0.15625 0.46875 0  0.1875 0.46875 0  0.21875 0.46875 0  0.25 0.46875 0  0.28125 0.46875 0  0.3125 0.46875 0  0.34375 0.46875 0  0.375 0.46875 0  0.40625 0.46875 0  0.4375 0.46875 0  0.46875 0.46875 0  0.5 0.46875 0  0.53125 0.46875 0  0.5625 0.46875 0  0.59375 0.46875 0  0.625 0.46875 0  0.65625 0.46875 0  0.6875 0.46875 0  0.71875 0.46875 0  0.75 0.46875 0  0.78125 0.46875 0  0.8125 0.46875 0  0.84375 0.46875 0  0.875 0.46875 0  0.90625 0.46875 0  0.9375 0.46875 0  0.96875 0.46875 0  1 0.46875 0  0 0.5 0  0.03125 0.5 0  0.0625 0.5 0  0.09375 0.5 0  0.125 0.5 0  0.15625 0.5 0  0.1875 0.5 0  0.21875 0.5 0  0.25 0.5 0  0.28125 0.5 0  0.3125 0.5 0  0.34375 0.5 0  0.375 0.5 0  0.40625 0.5 0  0.4375 0.5 0  0.46875 0.5 0  0.5 0.5 0  0.53125 0.5 0  0.5625 0.5 0  0.59375 0.5 0  0.625 0.5 0  0.65625 0.5 0  0.6875 0.5 0  0.71875 0.5 0  0.75 0.5 0  0.78125 0.5 0  0.8125 0.5 0  0.84375 0.5 0  0.875 0.5 0  0.90625 0.5 0  0.9375 0.5 0  0.96875 0.5 0  1 0.5 0  0 0.53125 0  0.03125 0.53125 0  0.0625 0.53125 0  0.09375 0.53125 0  0.125 0.53125 0  0.15625 0.53125 0  0.1875 0.53125 0  0.21875 0.53125 0  0.25 0.53125 0  0.28125 0.53125 0  0.3125 0.53125 0  0.34375 0.53125 0  0.375 0.53125 0  0.40625 0.53125 0  0.4375 0.53125 0  0.46875 0.53125 0  0.5 0.53125 0  0.53125 0.53125 0  0.5625 0.53125 0  0.59375 0.53125 0  0.625 0.53125 0  0.65625 0.53125 0  0.6875 0.53125 0  0.71875 0.53125 0  0.75 0.53125 0  0.78125 0.531
[...]
<PointData  Scalars="theta"> 
<DataArray  type="Float64"  Name="theta"  format="ascii">5.7977476454971049e-07  -6.5065170706777991e-07  -1.0545399004341981e-06  5.0147412919917565e-17  4.5929555013665045e-06  4.4315616081919679e-06  9.7039969261075819e-07  -1.4605801050191838e-06  -6.2822807266895116e-06  -7.0751501605367132e-06  -3.3063088634155959e-06  4.0629790822318431e-06  1.2608288935112839e-05  1.9322306414560319e-06  4.5024021486705435e-06  1.6715091566265670e-06  -4.1398794696763244e-06  -1.3022174866737318e-06  -1.2123028987147651e-05  -1.9644050139997738e-06  -1.1905078495293628e-05  -1.2012545705353960e-06  -8.1340196560055799e-06  -2.8842145424790927e-06  6.7840657826345348e-17  3.7091221573935763e-17  1.3136967055873960e-17  1.3003459936428445e-05  8.7088252527818132e-06  6.2719782955456578e-06  4.5595452959097301e-06  2.8842145425108459e-06  1.5126630059134336e-06  3.0596157748957222e-06  5.4150809025004787e-07  -5.9925902284183315e-07  -7.1808636704098226e-07  4.7607206694488277e-17  4.2941873956048192e-06  4.1342246505441861e-06  9.0786574458956220e-07  -1.3687178367355916e-06  -5.8871606264192062e-06  -6.6192173364126366e-06  -3.0844710767819630e-06  3.7986855214110164e-06  1.1969618818747490e-05  1.3157477313443839e-06  4.1467732778455805e-06  1.5611851128831138e-06  -3.9301747812571566e-06  -1.1574336016136175e-06  -1.1309630714662614e-05  -9.9716685610267649e-07  -1.1156316061166454e-05  0.0000000000000000e+00  -7.6098517628732519e-06  -2.2214089681190775e-06  6.3427676941515631e-17  3.4685655601280834e-17  8.9455855991844813e-18  1.2235625351652538e-05  8.1340196560951283e-06  5.8652066409933813e-06  4.0526033382067929e-06  2.2214089681435339e-06  -9.5356532038525250e-08  2.8789501044067856e-06  5.0661253223760691e-07  -5.4396000263591874e-07  -3.6451338696925729e-07  4.4986452594152364e-17  4.0076707281532963e-06  3.8613548434098909e-06  8.5076609883348489e-07  -1.2838914985074449e-06  -5.5223036302605942e-06  -6.2029058197108838e-06  -2.8808877935847089e-06  3.5452297180138426e-06  1.1310696992058546e-05  6.6789690483301697e-07  3.7641132084260620e-06  1.4605801050251226e-06  -3.7138205276015013e-06  -9.9821850343642581e-07  -1.0563165049942660e-05  0.0000000000000000e+00  -1.0464902963313020e-05  -1.5195417208385391e-05  -7.1312349161579204e-06  -1.5126630058967801e-06  5.9195657016145025e-17  3.2252971349299433e-17  4.5409380470748456e-18  1.1471585873606700e-05  7.6098517629570302e-06  5.4538493930815270e-06  3.4951323632270925e-06  -8.2237821057016964e-07  0.0000000000000000e+00  2.6991773938281725e-06  4.7474945523668490e-07  -4.8348113232055588e-07  0.0000000000000000e+00  4.2330070806763286e-17  3.7375849534248641e-06  3.6125235990186761e-06  7.9803983859506363e-07  -1.2037983134150368e-06  -5.1778049811854019e-06  -5.8184805035952884e-06  -2.6952392521530433e-06  3.3063088635001167e-06  1.0642817491457819e-05  0.0000000000000000e+00  3.3456094333661270e-06  1.3687178367411568e-06  -3.4945250588044206e-06  -8.2373885307063764e-07  -9.8824595435391366e-06  -2.3772162753175661e-05  -9.8120694403953032e-06  -1.4495249952143731e-05  -6.6892763701765861e-06  -7.6785459372335441e-07  5.5206331053447690e-17  2.9705422862301644e-17  0.0000000000000000e+00  1.0725368327950039e-05  7.1312349162364294e-06  5.0230690591027653e-06  -3.3440201135078844e-07  -6.7863386786888828e-07  1.8870529651951503e-06  2.5235980491493758e-06  4.4532684030270936e-07  -4.1697408099431110e-07  -6.0838907393869855e-06  3.9686818477982663e-17  3.4868105679470355e-06  3.3853161963617008e-06  7.4825560637760930e-07  -1.1257254935452939e-06  -4.8419963734544711e-06  -5.4555054107055967e-06  -2.5257238723262729e-06  3.0844710768608124e-06  9.9782390586103063e-06  1.2544511987537063e-05  2.8853916432023450e-06  1.2838914985126654e-06  -3.2763134819366769e-06  -6.3443993109694347e-07  -9.2609084579323573e-06  -2.2676800267133740e-05  -9.1757037623306952e-06  -1.3760996238469809e-05  -6.2719782954766093e-06  0.0000000000000000e+00  5.1502245683634781e-17  2.6964236302777423e-17  1.5195417208552681e-05  1.0009750562023095e-05  6.6892763702502289e-06  1.8544312988259205e-07  -3.0354372991033289e-07  -5.2268072917263343e-07  1.8001022300554622e-06  2.3552186012078394e-06  4.1754595298594874e-07  -3.4409074772306329e-07  -5.8035600957558282e-06  3.7105222471479453e-17  3.2566718097486177e-06  3.1755111006915151e-06  6.9972719051073705e-07  -1.0467725479333764e-06  -4.5024021486470621e-06  -5.1016864308300371e-06  -2.3691920425257379e-06  2.8808877936583546e-06  9.3291625366428514e-06  1.1966491889848825e-05  2.3810510370713389e-06  1.2037983134199316e-06  -3.0631918933237549e-06  -4.3202031998936478e-07  -8.6869633159401541e-06  -2.1528111912993129e-05  -8.5321642455904057e-06  -1.3003459936285288e-05  -5.8652066409288111e-06  8.9862649395821896e-17  4.8102960682316179e-17  2.3966283249968185e-17  1.4495249952303314e-05  9.3351713815553125e-06  5.7024442646563992e-07  1.7243704497852398e-07  -2.6979495833277285e-07  -3.5591816467007917e-07  1.7089184455898858e-06  2.1964952220406219e-06  3.9046584362582461e-07  -2.6501713432933796e-07  -5.5095820293611686e-06  3.4629488716018067e-17  3.0468072073341128e-06  2.9774127421882034e-06  6.5065170707153110e-07  -9.6409167515926484e-07  -4.1467732778239532e-06  -4.7438788004512964e-06  -2.2213943999663233e-06  2.6952392522219427e-06  8.7067023797227489e-06  1.1360331862337820e-05  1.8338747168070088e-06  1.1257254935498713e-06  -2.8588096779742475e-06  -2.1930118340469515e-07  -8.1450432537204100e-06  -2.0342999584716173e-05  -7.8582386751594313e-06  -1.2235625351517835e-05  -5.4538493930214843e-06  8.5722000685541143e-17  4.5003136902610822e-17  2.0669511724356398e-17  1.3760996238621309e-05  9.7308225251285367e-18  5.3326099668920415e-07  1.5881685078680496e-07  -2.3268230606591443e-07  -1.8067037844260890e-07  1.6148432974267003e-06  2.0491207151394516e-06  3.6308045643164111e-07  -1.8046276970251166e-07  -5.2062821574059194e-06  3.2295731049098908e-17  2.8551801817935782e-06  2.7843114509600331e-06  5.9925902284528809e-07  -8.7512626455574793e-07  -3.7641132084064303e-06  -4.3691765403181977e-06  -2.0773249799351350e-06  2.5257238723908388e-06  8.1199384919018334e-06  1.0734950992998860e-05  1.2487725049171114e-06  1.0467725479376328e-06  -2.6661481847899997e-06  0.0000000000000000e+00  -7.6167932240497543e-06  -1.9141776316786668e-05  -7.1330883099304142e-06  -1.1471585873480407e-05  -5.0230690590474651e-06  8.1379771503242119e-17  4.2172692874553517e-17  1.7056666273704071e-17  -5.3326099667582028e-07  9.0997261481668680e-18  4.9586064757215219e-07  1.4416139145128947e-07  -1.9201152379838086e-07  0.0000000000000000e+00  1.5194892502100680e-06  1.9138733056254593e-06  3.3440201135371235e-07  -9.1606105373062126e-08  -4.8988590932290508e-06  3.0128839270499012e-17  2.6782302851072315e-06  2.5890333020553943e-06  5.4396000263905488e-07  -7.7782747860243634e-07  -3.3456094333486777e-06  -3.9659933214148196e-06  -1.9316314453216746e-06  2.3691920425863021e-06  7.5751287789992419e-06  1.0101068420314675e-05  6.3389909099254798e-07  9.6409167516318491e-07  -2.4872621712370824e-06  -1.9733379898633933e-05  -7.0825881584242909e-06  -1.7946490226732218e-05  -6.3400132294946637e-06  -1.0725368327831961e-05  -4.5595452958595324e-06  7.6899853762632194e-17  3.9559038683927454e-17  -1.5881685078446966e-07  -4.9586064755970694e-07  8.4615153340927234e-18  4.5669436336213569e-07  1.2813315765502565e-07  -1.4788640535086854e-07  -1.8870529651245463e-06  1.4246065008400110e-06  1.7905405647718992e-06  3.0354372991298696e-07  0.0000000000000000e+00  -4.5929555012965540e-06  2.8140255858651987e-17  2.5111538661150054e-06  2.3845346901288566e-06  4.8348113232334336e-07  -6.7083051722344036e-07  -2.8853916431872957e-06  -3.5250439968410720e-06  -1.7790586881430254e-06  2.2213944000231096e-06  7.0751501605971456e-06  9.4703188818352058e-06  0.0000000000000000e+00  8.7512626455930621e-07  -2.3230962619489760e-06  -1.8824114541156526e-05  -6.5231594920972678e-06  -1.6779085297919796e-05  -5.4678890511647691e-06  -1.0009750561912896e-05  -4.0526033381621763e-06  7.2359034044509049e-17  3.9955374916558539e-08  -1.4416139144916967e-07  -4.5669436335067349e-07  7.7931700720818558e-18  4.1455106661588768e-07  1.1050732300899744e-07  -1.0070288616811013e-07  -1.8001022299881112e-06  1.3319369799650279e-06  1.6779256406273788e-06  2.6979495833513189e-07  -7.2135180779228126e-06  -4.2941873955394190e-06  2.6326857409984145e-17  2.3482919803077175e-06  2.1644922260441014e-06  4.1697408099671519e-07  -5.5357535345227403e-07  -2.3810510370589206e-06  -3.0401434157161354e-06  -1.6148889408498003e-06  2.0773249799882389e-06  6.6192173364691752e-06  8.8542821637692023e-06  2.9164988693215032e-06  7.7782747860559905e-07  -2.1733926068477342e-06  -1.7870583139207620e-05  -5.9212088917554555e-06  -1.5659551574877020e-05  -4.5121510372912251e-06  -9.3351713814525403e-06  -3.4951323631886135e-06  1.5851474408151435e-08  3.2971533381187609e-08  -1.2813315765314153e-07  -4.1455106660548320e-07  7.0740241721327992e-18  3.6846021420860430e-07  9.1191633092318709e-08  -5.1118572639079839e-08  -1.7089184455259464e-06  1.2430675130326756e-06  1.5739361373905381e-06  2.3268230606794892e-07  -6.8811369993906831e-06  -4.0076707280922591e-06  2.4671046249645168e-17  2.1835941298413175e-06  1.9238384206113703e-06  3.4409074772504709e-07  -4.2636122818782423e-07  -1.8338747167974444e-06  -2.5087535863251522e-06  -1.4353414403826772e-06  1.9316314453710541e-06  6.2029058197638666e-06  8.2635069635915904e-06  2.7821138120926787e-06  6.7083051722616802e-07  -2.0366984439944068e-06  -1.6886816031466460e-05  -5.2628736778806603e-06  -1.4604219835847306e-05  -3.4752382779164160e-06  -8.7088252526859358e-06  2.6844146545760178e-07  0.0000000000000000e+00  2.5394525569048792e-08  -1.1050732300737253e-07  -3.6846021419935660e-07  6.2875159942502530e-18  3.1777529448808988e-07  7.0235382488079829e-08  0.0000000000000000e+00  -1.6148432973662810e-06  1.1592944500565463e-06  1.4757490565334719e-06  1.9201152380005973e-07  -6.5325745107973485e-06  -3.7375849533679396e-06  2.3142057251733157e-17  2.0111197286009081e-06  1.6591976476221776e-06  2.6501713433086595e-07  -2.9032963595826508e-07  -1.2487725049105988e-06  -1.9322306414395279e-06  -1.2378976923959929e-06  1.7790586881885047e-06  5.8184805036449880e-06  7.7066109929328790e-06  2.6411864458770688e-06  5.5357535345452480e-07  -1.9104739830850225e-06  -1.5889675159798616e-05  -4.5389194500530403e-06  -1.3624345317848249e-05  -2.3664550090169638e-06  -1.7978367484733301e-07  2.5259040411131781e-07  1.7370975645130373e-07  1.7292340101213121e-08  -9.1191633090977816e-08  -3.1777529448011437e-07  5.4226132690143558e-18  2.6223102027728982e-07  4.7826611992427066e-08  -3.5753667427057542e-06  -1.5194892501532162e-06  1.0815112405981525e-06  1.3800387627245142e-06  1.4788640535216159e-07  -6.1729593889779000e-06  -3.4868105678939307e-06  2.1698383018328751e-17  1.8255356217800950e-06  1.3691847652239372e-06  1.8046276970355213e-07  -1.4737647697837283e-07  -6.3389909098924201e-07  -1.3157477313331455e-06  -1.0215242673249110e-06  1.6148889408910826e-06  5.4555054107521945e-06  7.1895336127656406e-06  2.4957903874146564e-06  4.2636122818955784e-07  -1.7912926141614462e-06  -1.4897462766357621e-05  -3.7455569988888919e-06  -1.2725102341605308e-05  -6.2346879770631641e-08  -1.6791747481511434e-07  2.3681768837590719e-07  1.6570564034912796e-07  8.7778987991256040e-09  -7.0235382487047071e-08  -2.6223102027070832e-07  4.4747890561898276e-18  2.0196914327402534e-07  2.4277637238069357e-08  -3.4106226828377223e-06  -1.4246065007867093e-06  1.0101286263038991e-06  1.2832495134799405e-06  1.0070288616899065e-07  -5.8084555005938500e-06  -3.2566718096990175e-06  2.0291125731143463e-17  1.6225678822575064e-06  1.0545399004424148e-06  9.1606105373590304e-08  0.0000000000000000e+00  0.0000000000000000e+00  -6.6789690482731210e-07  -7.8677336070719041e-07  1.4353414404193698e-06  5.1016864308736136e-06  6.7150052994475298e-06  2.3484177508104801e-06  2.9032963595944569e-07  -1.6751176170369812e-06  -1.3928394651058951e-05  -2.8848110240721719e-06  1.7683939022240557e-09  -5.7422319564734351e-08  -1.5709663189657604e-07  2.2141288592443993e-07  1.5731185740611160e-07  0.0000000000000000e+00  -4.7826611991723817e-08  -2.0196914326895630e-07  3.4464622494126550e-18  1.3753039433435285e-07  0.0000000000000000e+00  -3.2378583373395788e-06  -1.3319369799151932e-06  9.4503448881291839e-07  1.1818901589850722e-06  5.1118572639526808e-08  -5.4457532126942923e-06  -3.0468072072877093e-06  1.8868004237101284e-17  1.3993695024000094e-06  7.1808636704657733e-07  0.0000000000000000e+00  -1.2544511987471638e-05  -1.3217309896952686e-05  0.0000000000000000e+00  -5.3575139645472709e-07  1.2378976924276379e-06  4.7438788004918167e-06  6.2822807267222757e-06  2.2017735196416588e-06  1.4737647697897211e-07  -1.5576329630340166e-06  -1.2999064640343629e-05  2.3052778483276256e-08  0.0000000000000000e+00  -5.2123445640696948e-08  -1.4721613790919392e-07  2.0663978070997600e-07  1.4865191442785120e-07  -4.8044099713204867e-07  -2.4277637237712373e-08  -1.3753039433090111e-07  2.3468600427595225e-18  6.9812869525165952e-08  -1.0116082454900693e-06  -3.0596157748564504e-06  -1.2430675129861663e-06  8.8559713823539600e-07  1.0728265232421406e-06  0.0000000000000000e+00  -5.0915112934511802e-06  -2.8551801817500924e-06  1.7377687108600834e-17  1.1547722517271754e-06  3.6451338697209749e-07  -2.9164988693096447e-06  -1.1966491889786415e-05  -1.2608288935005145e-05  -5.3818768340132075e-06  -2.7195691919336571e-07  1.0215242673510248e-06  4.3691765403555171e-06  5.8871606264499103e-06  2.0585499017372701e-06  0.0000000000000000e+00  -1.4346010273000896e-06  1.7258825797427679e-18  2.1499200867091307e-08  -1.7370975644615843e-07  -4.6328227069445656e-08  -1.3809241235250044e-07  1.9271386986338202e-07  1.3987424436550910e-07  -4.5830346381296865e-07  0.0000000000000000e+00  -6.9812869523413785e-08  1.1913078178244640e-18  0.0000000000000000e+00  -9.6499583860956855e-07  -2.8789501043698329e-06  -1.1592944500131712e-06  8.3071222305010033e-07  9.5354691471277874e-07  -1.8128340982231674e-06  -4.7517956001899735e-06  -2.6782302850664409e-06  1.5774091611626210e-17  8.8940035435675410e-07  0.0000000000000000e+00  -2.7821138120813665e-06  -1.1360331862278570e-05  -1.1969618818645254e-05  -5.1338932555023031e-06  0.0000000000000000e+00  7.8677336072730310e-07  3.9659933214486941e-06  5.5223036302893950e-06  1.9211993850290093e-06  -4.3398489810006718e-06  4.7281579067886705e-18  1.5666198702759451e-18  2.0056705525074031e-08  -1.6570564034421974e-07  -3.9955374915375069e-08  -1.2947777384506911e-07  1.7978367486038692e-07  1.3113995890108482e-07  -4.3508820216482256e-07  -1.3815580288174294e-06  0.0000000000000000e+00  0.0000000000000000e+00  4.8044099713911314e-07  -9.1611418561853702e-07  -2.6991773937935271e-06  -1.0815112405576876e-06  7.7888978484825423e-07  8.2237821058072547e-07  -1.7293031849769159e-06  -4.4315616081574386e-06  -2.5111538660767597e-06  1.4020287588721382e-17  6.0563499687592489e-07  1.8128340982336194e-06  -2.6411864458663297e-06  -1.0734950992942871e-05  -1.1310696991961937e-05  -4.8738370163271676e-06  5.3818768341507877e-06  5.3575139646842298e-07  3.5250439968711811e-06  5.1778049812124053e-06  1.7917255186586435e-06  -1.4444568362650070e-08  4.4678750613621038e-18  1.3924390490597474e-18  1.8732909691275811e-08  -1.5731185740145204e-07  -3.2971533380211000e-08  -1.2108044116741798e-07  1.6791747482730667e-07  1.2260940877951598e-07  -4.1113680343755272e-07  -1.3178992505746093e-06  2.3575322025065485e-17  1.3815580288521040e-06  4.5830346381970765e-07  -8.6568253513874431e-07  -2.5235980491169840e-06  -1.0101286262661051e-06  7.2837457711521690e-07  6.7863386787759907e-07  -1.6417057106436324e-06  -4.1342246505119734e-06  -2.3482919802719524e-06  1.2091674611010441e-17  3.0743107530094602e-07  1.7293031849868861e-06  -2.4957903874045085e-06  -1.0101068420261993e-05  -1.0642817491366917e-05  -4.6055346051632887e-06  5.1338932556335441e-06  2.7195691920031789e-07  3.0401434157421020e-06  4.8419963734797237e-06  -3.3383028289247230e-08  -1.3507760118855366e-08  4.2040538161440522e-18  1.2008968996070897e-18  1.7525734122445659e-08  -1.4865191442344813e-07  -2.5394525568296617e-08  -1.1258844419215939e-07  1.5709663190798269e-07  1.1442866677518142e-07  -3.8685979883286332e-07  -1.2511413524923225e-06  2.2489029473111418e-17  1.3178992506076862e-06  4.3508820217122014e-07  -8.1456529456080463e-07  -2.3552186011776084e-06  -9.4503448877755985e-07  6.7728990442918680e-07  5.2268072917934246e-07  -1.5513305915923331e-06  -3.8613548433798043e-06  -2.1835941298080609e-06  9.9781582303753013e-18  0.0000000000000000e+00  1.6417057106530976e-06  -2.3484177508009315e-06  -9.4703188817858136e-06  -9.9782390585250779e-06  -4.3335847726944769e-06  4.8738370164517602e-06  0.0000000000000000e+00  2.5087535863465809e-06  2.0221252577237783e-19  -3.1692018297975142e-08  -1.2560391105612082e-08  3.9415365363934516e-18  9.9099088158851196e-19  1.6423464083102720e-08  -1.3987424436136605e-07  -1.7292340100700931e-08  -1.0369547995798501e-07  1.4721613791988316e-07  1.0671706639344109e-07  -3.6270278598862332e-07  -1.1822666157179909e-06  2.1349852607443623e-17  1.2511413525237239e-06  4.1113680344359810e-07  -7.6370070655620091e-07  -2.1964952220124284e-06  -8.8559713820226134e-07  6.2379316291656550e-07  3.5591816467464770e-07  -1.4597268733151320e-06  -3.6125235989905288e-06  -2.0111197285702782e-06  7.6851322437389567e-18  7.2135180779790192e-06  1.5513305916012773e-06  -2.2017735196327065e-06  -8.8542821637230221e-06  -9.3291625365631677e-06  -4.0629790821279782e-06  4.6055346052810221e-06  1.3217309897065582e-05  4.2184305825977640e-19  1.8803031648521413e-19  -2.9947387754214314e-08  -1.1568290098524635e-08  3.6851427166801147e-18  7.6325668540342618e-19  1.5405619293037189e-08  -1.3113995889720051e-07  -8.7778987988656062e-09  -9.4126565310249961e-08  1.3809241236252722e-07  9.9556852758620828e-08  -3.3910925796683732e-07  -1.1124555653965965e-06  2.0174553369208684e-17  1.1822666157476637e-06  3.8685979883855173e-07  -7.1402258243791342e-07  -2.0491207151131495e-06  -8.3071222301901919e-07  5.6623015692818674e-07  1.8067037844492797e-07  -1.3685759164720030e-06  -3.3853161963353229e-06  -1.8255356217522918e-06  5.2331720126130706e-18  6.8811369994442986e-06  1.4597268733235481e-06  -2.0585499017289002e-06  -8.2635069635484916e-06  -8.7067023796483811e-06  -3.7986855213139088e-06  4.3335847728052578e-06  1.2050036534726889e-19  3.9550155622886226e-19  1.7317846475707786e-19  -2.8179039933419167e-08  -1.0500779917580662e-08  3.4392627135514372e-18  5.1973777390065471e-19  1.4444568363940124e-08  -1.2260940877588433e-07  0.0000000000000000e+00  -8.3661332004411967e-08  1.2947777385447036e-07  9.2985836060830475e-08  -3.1648321826627308e-07  -1.0429895638554486e-06  1.8983276594795023e-17  1.1124555654245175e-06  3.6270278599395651e-07  -6.6638158497827021e-07  -1.9138733056008937e-06  -7.7888978481911217e-07  5.0327523365521943e-07  0.0000000000000000e+00  -1.2795511405877712e-06  -3.1755111006667724e-06  -1.6225678822327946e-06  2.6564510098845085e-18  6.5325745108482484e-06  1.3685759164798935e-06  -1.9211993850211975e-06  -7.7066109928926856e-06  -8.1199384918324783e-06  -3.5452297179232143e-06  2.6236200016992033e-19  9.9437981167490712e-20  3.6977449426513556e-19  1.5719773012180059e-19  -2.6419432365861974e-08  -9.3332762339125922e-09  3.2074832093225112e-18  2.6382812012023262e-19  1.3507760120061753e-08  -1.1442866677179206e-07  -3.1369190072098085e-07  -7.2152985287894491e-08  1.2108044117620952e-07  8.6993695416915609e-08  -2.9515471575394683e-07  -9.7514392149518898e-07  1.7797887836620269e-17  1.0429895638816259e-06  3.3910925797182364e-07  -6.2147265935738959e-07  -1.7905405647489165e-06  -7.2837457708796467e-07  4.34