<?xml version="1.0"?>
<VTKFile type="UnstructuredGrid"  version="0.1"  >
<UnstructuredGrid>
<Piece  NumberOfPoints="1089" NumberOfCells="2048">
<Points>
<DataArray  type="Float64"  NumberOfComponents="3"  format="ascii">0 0 0  0.03125 0 0  0.0625 0 0  0.09375 0 0  0.125 0 0  0.15625 0 0  0.1875 0 0  0.21875 0 0  0.25 0 0  0.28125 0 0  0.3125 0 0  0.34375 0 0  0.375 0 0  0.40625 0 0  0.4375 0 0  0.46875 0 0  0.5 0 0  0.53125 0 0  0.5625 0 0  0.59375 0 0  0.625 0 0  0.65625 0 0  0.6875 0 0  0.71875 0 0  0.75 0 0  0.78125 0 0  0.8125 0 0  0.84375 0 0  0.875 0 0  0.90625 0 0  0.9375 0 0  0.96875 0 0  1 0 0  0 0.03125 0  0.03125 0.03125 0  0.0625 0.03125 0  0.09375 0.03125 0  0.125 0.03125 0  0.15625 0.03125 0  0.1875 0.03125 0  0.21875 0.03125 0  0.25 0.03125 0  0.28125 0.03125 0  0.3125 0.03125 0  0.34375 0.03125 0  0.375 0.03125 0  0.40625 0.03125 0  0.4375 0.03125 0  0.46875 0.03125 0  0.5 0.03125 0  0.53125 0.03125 0  0.5625 0.03125 0  0.59375 0.03125 0  0.625 0.03125 0  0.65625 0.03125 0  0.6875 0.03125 0  0.71875 0.03125 0  0.75 0.03125 0  0.78125 0.03125 0  0.8125 0.03125 0  0.84375 0.03125 0  0.875 0.03125 0  0.90625 0.03125 0  0.9375 0.03125 0  0.96875 0.03125 0  1 0.03125 0  0 0.0625 0  0.03125 0.0625 0  0.0625 0.0625 0  0.09375 0.0625 0  0.125 0.0625 0  0.15625 0.0625 0  0.1875 0.0625 0  0.21875 0.0625 0  0.25 0.0625 0  0.28125 0.0625 0  0.3125 0.0625 0  0.34375 0.0625 0  0.375 0.0625 0  0.40625 0.0625 0  0.4375 0.0625 0  0.46875 0.0625 0  0.5 0.0625 0  0.53125 0.0625 0  0.5625 0.0625 0  0.59375 0.0625 0  0.625 0.0625 0  0.65625 0.0625 0  0.6875 0.0625 0  0.71875 0.0625 0  0.75 0.0625 0  0.78125 0.0625 0  0.8125 0.0625 0  0.84375 0.0625 0  0.875 0.0625 0  0.90625 0.0625 0  0.9375 0.0625 0  0.96875 0.0625 0  1 0.0625 0  0 0.09375 0  0.03125 0.09375 0  0.0625 0.09375 0  0.09375 0.09375 0  0.125 0.09375 0  0.15625 0.09375 0  0.1875 0.09375 0  0.21875 0.09375 0  0.25 0.09375 0  0.28125 0.09375 0  0.3125 0.09375 0  0.34375 0.09375 0  0.375 0.09375 0  0.40625 0.09375 0  0.4375 0.09375 0  0.46875 0.09375 0  0.5 0.09375 0  0.53125 0.09375 0  0.5625 0.09375 0  0.59375 0.09375 0  0.625 0.09375 0  0.65625 0.09375 0  0.6875 0.09375 0  0.71875 0.09375 0  0.75 0.09375 0  0.78125 0.09375 0  0.8125 0.09375 0  0.84375 0.09375 0  0.875 0.09375 0  0.90625 0.09375 0  0.9375 0.09375 0  0.96875 0.09375 0  1 0.09375 0  0 0.125 0  0.03125 0.125 0  0.0625 0.125 0  0.09375 0.125 0  0.125 0.125 0  0.15625 0.125 0  0.1875 0.125 0  0.21875 0.125 0  0.25 0.125 0  0.28125 0.125 0  0.3125 0.125 0  0.34375 0.125 0  0.375 0.125 0  0.40625 0.125 0  0.4375 0.125 0  0.46875 0.125 0  0.5 0.125 0  0.53125 0.125 0  0.5625 0.125 0  0.59375 0.125 0  0.625 0.125 0  0.65625 0.125 0  0.6875 0.125 0  0.71875 0.125 0  0.75 0.125 0  0.78125 0.125 0  0.8125 0.125 0  0.84375 0.125 0  0.875 0.125 0  0.90625 0.125 0  0.9375 0.125 0  0.96875 0.125 0  1 0.125 0  0 0.15625 0  0.03125 0.15625 0  0.0625 0.15625 0  0.09375 0.15625 0  0.125 0.15625 0  0.15625 0.15625 0  0.1875 0.15625 0  0.21875 0.15625 0  0.25 0.15625 0  0.28125 0.15625 0  0.3125 0.15625 0  0.34375 0.15625 0  0.375 0.15625 0  0.40625 0.15625 0  0.4375 0.15625 0  0.46875 0.15625 0  0.5 0.15625 0  0.53125 0.15625 0  0.5625 0.15625 0  0.59375 0.15625 0  0.625 0.15625 0  0.65625 0.15625 0  0.6875 0.15625 0  0.71875 0.15625 0  0.75 0.15625 0  0.78125 0.15625 0  0.8125 0.15625 0  0.84375 0.15625 0  0.875 0.15625 0  0.90625 0.15625 0  0.9375 0.15625 0  0.96875 0.15625 0  1 0.15625 0  0 0.1875 0  0.03125 0.1875 0  0.0625 0.1875 0  0.09375 0.1875 0  0.125 0.1875 0  0.15625 0.1875 0  0.1875 0.1875 0  0.21875 0.1875 0  0.25 0.1875 0  0.28125 0.1875 0  0.3125 0.1875 0  0.34375 0.1875 0  0.375 0.1875 0  0.40625 0.1875 0  0.4375 0.1875 0  0.46875 0.1875 0  0.5 0.1875 0  0.53125 0.1875 0  0.5625 0.1875 0  0.59375 0.1875 0  0.625 0.1875 0  0.65625 0.1875 0  0.6875 0.1875 0  0.71875 0.1875 0  0.75 0.1875 0  0.78125 0.1875 0  0.8125 0.1875 0  0.84375 0.1875 0  0.875 0.1875 0  0.90625 0.1875 0  0.9375 0.1875 0  0.96875 0.1875 0  1 0.1875 0  0 0.21875 0  0.03125 0.21875 0  0.0625 0.21875 0  0.09375 0.21875 0  0.125 0.21875 0  0.15625 0.21875 0  0.1875 0.21875 0  0.21875 0.21875 0  0.25 0.21875 0  0.28125 0.21875 0  0.3125 0.21875 0  0.34375 0.21875 0  0.375 0.21875 0  0.40625 0.21875 0  0.4375 0.21875 0  0.46875 0.21875 0  0.5 0.21875 0  0.53125 0.21875 0  0.5625 0.21875 0  0.59375 0.21875 0  0.625 0.21875 0  0.65625 0.21875 0  0.6875 0.21875 0  0.71875 0.21875 0  0.75 0.21875 0  0.78125 0.21875 0  0.8125 0.21875 0  0.84375 0.21875 0  0.875 0.21875 0  0.90625 0.21875 0  0.9375 0.21875 0  0.96875 0.21875 0  1 0.21875 0  0 0.25 0  0.03125 0.25 0  0.0625 0.25 0  0.09375 0.25 0  0.125 0.25 0  0.15625 0.25 0  0.1875 0.25 0  0.21875 0.25 0  0.25 0.25 0  0.28125 0.25 0  0.3125 0.25 0  0.34375 0.25 0  0.375 0.25 0  0.40625 0.25 0  0.4375 0.25 0  0.46875 0.25 0  0.5 0.25 0  0.53125 0.25 0  0.5625 0.25 0  0.59375 0.25 0  0.625 0.25 0  0.65625 0.25 0  0.6875 0.25 0  0.71875 0.25 0  0.75 0.25 0  0.78125 0.25 0  0.8125 0.25 0  0.84375 0.25 0  0.875 0.25 0  0.90625 0.25 0  0.9375 0.25 0  0.96875 0.25 0  1 0.25 0  0 0.28125 0  0.03125 0.28125 0  0.0625 0.28125 0  0.09375 0.28125 0  0.125 0.28125 0  0.15625 0.28125 0  0.1875 0.28125 0  0.21875 0.28125 0  0.25 0.28125 0  0.28125 0.28125 0  0.3125 0.28125 0  0.34375 0.28125 0  0.375 0.28125 0  0.40625 0.28125 0  0.4375 0.28125 0  0.46875 0.28125 0  0.5 0.28125 0  0.53125 0.28125 0  0.5625 0.28125 0  0.59375 0.28125 0  0.625 0.28125 0  0.65625 0.28125 0  0.6875 0.28125 0  0.71875 0.28125 0  0.75 0.28125 0  0.78125 0.28125 0  0.8125 0.28125 0  0.84375 0.28125 0  0.875 0.28125 0  0.90625 0.28125 0  0.9375 0.28125 0  0.96875 0.28125 0  1 0.28125 0  0 0.3125 0  0.03125 0.3125 0  0.0625 0.3125 0  0.09375 0.3125 0  0.125 0.3125 0  0.15625 0.3125 0  0.1875 0.3125 0  0.21875 0.3125 0  0.25 0.3125 0  0.28125 0.3125 0  0.3125 0.3125 0  0.34375 0.3125 0  0.375 0.3125 0  0.40625 0.3125 0  0.4375 0.3125 0  0.46875 0.3125 0  0.5 0.3125 0  0.53125 0.3125 0  0.5625 0.3125 0  0.59375 0.3125 0  0.625 0.3125 0  0.65625 0.3125 0  0.6875 0.3125 0  0.71875 0.3125 0  0.75 0.3125 0  0.78125 0.3125 0  0.8125 0.3125 0  0.84375 0.3125 0  0.875 0.3125 0  0.90625 0.3125 0  0.9375 0.3125 0  0.96875 0.3125 0  1 0.3125 0  0 0.34375 0  0.03125 0.34375 0  0.0625 0.34375 0  0.09375 0.34375 0  0.125 0.34375 0  0.15625 0.34375 0  0.1875 0.34375 0  0.21875 0.34375 0  0.25 0.34375 0  0.28125 0.34375 0  0.3125 0.34375 0  0.34375 0.34375 0  0.375 0.34375 0  0.40625 0.34375 0  0.4375 0.34375 0  0.46875 0.34375 0  0.5 0.34375 0  0.53125 0.34375 0  0.5625 0.34375 0  0.59375 0.34375 0  0.625 0.34375 0  0.65625 0.34375 0  0.6875 0.34375 0  0.71875 0.34375 0  0.75 0.34375 0  0.78125 0.34375 0  0.8125 0.34375 0  0.84375 0.34375 0  0.875 0.34375 0  0.90625 0.34375 0  0.9375 0.34375 0  0.96875 0.34375 0  1 0.34375 0  0 0.375 0  0.03125 0.375 0  0.0625 0.375 0  0.09375 0.375 0  0.125 0.375 0  0.15625 0.375 0  0.1875 0.375 0  0.21875 0.375 0  0.25 0.375 0  0.28125 0.375 0  0.3125 0.375 0  0.34375 0.375 0  0.375 0.375 0  0.40625 0.375 0  0.4375 0.375 0  0.46875 0.375 0  0.5 0.375 0  0.53125 0.375 0  0.5625 0.375 0  0.59375 0.375 0  0.625 0.375 0  0.65625 0.375 0  0.6875 0.375 0  0.71875 0.375 0  0.75 0.375 0  0.78125 0.375 0  0.8125 0.375 0  0.84375 0.375 0  0.875 0.375 0  0.90625 0.375 0  0.9375 0.375 0  0.96875 0.375 0  1 0.375 0  0 0.40625 0  0.03125 0.40625 0  0.0625 0.40625 0  0.09375 0.40625 0  0.125 0.40625 0  0.15625 0.40625 0  0.1875 0.40625 0  0.21875 0.40625 0  0.25 0.40625 0  0.28125 0.40625 0  0.3125 0.40625 0  0.34375 0.40625 0  0.375 0.40625 0  0.40625 0.40625 0  0.4375 0.40625 0  0.46875 0.40625 0  0.5 0.40625 0  0.53125 0.40625 0  0.5625 0.40625 0  0.59375 0.40625 0  0.625 0.40625 0  0.65625 0.40625 0  0.6875 0.40625 0  0.71875 0.40625 0  0.75 0.40625 0  0.78125 0.40625 0  0.8125 0.40625 0  0.84375 0.40625 0  0.875 0.40625 0  0.90625 0.40625 0  0.9375 0.40625 0  0.96875 0.40625 0  1 0.40625 0  0 0.4375 0  0.03125 0.4375 0  0.0625 0.4375 0  0.09375 0.4375 0  0.125 0.4375 0  0.15625 0.4375 0  0.1875 0.4375 0  0.21875 0.4375 0  0.25 0.4375 0  0.28125 0.4375 0  0.3125 0.4375 0  0.34375 0.4375 0  0.375 0.4375 0  0.40625 0.4375 0  0.4375 0.4375 0  0.46875 0.4375 0  0.5 0.4375 0  0.53125 0.4375 0  0.5625 0.4375 0  0.59375 0.4375 0  0.625 0.4375 0  0.65625 0.4375 0  0.6875 0.4375 0  0.71875 0.4375 0  0.75 0.4375 0  0.78125 0.4375 0  0.8125 0.4375 0  0.84375 0.4375 0  0.875 0.4375 0  0.90625 0.4375 0  0.9375 0.4375 0  0.96875 0.4375 0  1 0.4375 0  0 0.46875 0  0.03125 0.46875 0  0.0625 0.46875 0  0.09375 0.46875 0  0.125 0.46875 0  0.15625 0.46875 0  0.1875 0.46875 0  0.21875 0.46875 0  0.25 0.46875 0  0.28125 0.46875 0  0.3125 0.46875 0  0.34375 0.46875 0  0.375 0.46875 0  0.40625 0.46875 0  0.4375 0.46875 0  0.46875 0.46875 0  0.5 0.46875 0  0.53125 0.46875 0  0.5625 0.46875 0  0.59375 0.46875 0  0.625 0.46875 0  0.65625 0.46875 0  0.6875 0.46875 0  0.71875 0.46875 0  0.75 0.46875 0  0.78125 0.46875 0  0.8125 0.46875 0  0.84375 0.46875 0  0.875 0.46875 0  0.90625 0.46875 0  0.9375 0.46875 0  0.96875 0.46875 0  1 0.46875 0  0 0.5 0  0.03125 0.5 0  0.0625 0.5 0  0.09375 0.5 0  0.125 0.5 0  0.15625 0.5 0  0.1875 0.5 0  0.21875 0.5 0  0.25 0.5 0  0.28125 0.5 0  0.3125 0.5 0  0.34375 0.5 0  0.375 0.5 0  0.40625 0.5 0  0.4375 0.5 0  0.46875 0.5 0  0.5 0.5 0  0.53125 0.5 0  0.5625 0.5 0  0.59375 0.5 0  0.625 0.5 0  0.65625 0.5 0  0.6875 0.5 0  0.71875 0.5 0  0.75 0.5 0  0.78125 0.5 0  0.8125 0.5 0  0.84375 0.5 0  0.875 0.5 0  0.90625 0.5 0  0.9375 0.5 0  0.96875 0.5 0  1 0.5 0  0 0.53125 0  0.03125 0.53125 0  0.0625 0.53125 0  0.09375 0.53125 0  0.125 0.53125 0  0.15625 0.53125 0  0.1875 0.53125 0  0.21875 0.53125 0  0.25 0.53125 0  0.28125 0.53125 0  0.3125 0.53125 0  0.34375 0.53125 0  0.375 0.53125 0  0.40625 0.53125 0  0.4375 0.53125 0  0.46875 0.53125 0  0.5 0.53125 0  0.53125 0.53125 0  0.5625 0.53125 0  0.59375 0.53125 0  0.625 0.53125 0  0.65625 0.53125 0  0.6875 0.53125 0  0.71875 0.53125 0  0.75 0.53125 0  0.78125 0.531
[...]
<PointData  Scalars="phi"> 
<DataArray  type="Float64"  Name="phi"  format="ascii">0.0000000000000000e+00  0.0000000000000000e+00  0.0000000000000000e+00  0.0000000000000000e+00  0.0000000000000000e+00  0.0000000000000000e+00  0.0000000000000000e+00  0.0000000000000000e+00  0.0000000000000000e+00  0.0000000000000000e+00  0.0000000000000000e+00  0.0000000000000000e+00  0.0000000000000000e+00  0.0000000000000000e+00  0.0000000000000000e+00  0.0000000000000000e+00  0.0000000000000000e+00  0.0000000000000000e+00  0.0000000000000000e+00  0.0000000000000000e+00  0.0000000000000000e+00  0.0000000000000000e+00  0.0000000000000000e+00  0.0000000000000000e+00  0.0000000000000000e+00  0.0000000000000000e+00  0.0000000000000000e+00  0.0000000000000000e+00  0.0000000000000000e+00  0.0000000000000000e+00  0.0000000000000000e+00  0.0000000000000000e+00  0.0000000000000000e+00  0.0000000000000000e+00  -1.1825049724108659e-15  1.0611718301743752e-04  4.1813367200489721e-04  1.0254330466413347e-03  2.0027606345814652e-03  3.4065064881217497e-03  5.2716994956242425e-03  7.6098514894228112e-03  1.0407749036409921e-02  1.3627250350413945e-02  1.7206104061476799e-02  2.1059765935292324e-02  2.5084150209651494e-02  2.9159215346457878e-02  3.3153251028296263e-02  3.6927705391448448e-02  4.0342369840616857e-02  4.3260724166865536e-02  4.5555237661005922e-02  4.7112422768744756e-02  4.7837446569968092e-02  4.7658121699561060e-02  4.6528121726528440e-02  4.4429295748586298e-02  4.1372992255615040e-02  3.7400342596140473e-02  3.2581499966432712e-02  2.7013883819427723e-02  2.0819553586651985e-02  1.4141969194086314e-02  7.1427270097254754e-03  0.0000000000000000e+00  0.0000000000000000e+00  -1.0611718302210279e-04  -4.6040830633969217e-15  5.1767745349961375e-04  1.6257307184758230e-03  3.4739105818611844e-03  6.1754539918742069e-03  9.8010714582377634e-03  1.4374633905648854e-02  1.9870749045698126e-02  2.6214340161649814e-02  3.3282260231560890e-02  4.0906893825022730e-02  4.8881620891208746e-02  5.6967943223020651e-02  6.4904008755969744e-02  7.2414213419584178e-02  7.9219517120077465e-02  8.5048081257894648e-02  8.9645821112314172e-02  9.2786468031393288e-02  9.4280753640035853e-02  9.3984360641674064e-02  9.1804331135379252e-02  8.7703682163071423e-02  8.1704047633187310e-02  7.3886244045569954e-02  6.4388743317173092e-02  5.3404129744770823e-02  4.1173723084242921e-02  2.7980672974344964e-02  1.4141969194086345e-02  0.0000000000000000e+00  0.0000000000000000e+00  -4.1813367201174812e-04  -5.1767745351313994e-04  -9.9356675606759596e-15  1.4032131917934491e-03  3.9171071979740386e-03  7.7124978834366871e-03  1.2896871987475035e-02  1.9507926603868068e-02  2.7509925905934471e-02  3.6793041141151964e-02  4.7175722261772308e-02  5.8410030389018056e-02  7.0189744034412083e-02  8.2160942978332069e-02  9.3934676060174999e-02  1.0510123659093093e-01  1.1524550482479382e-01  1.2396277340378375e-01  1.3087445061704672e-01  1.3564303854527954e-01  1.3798580866440030e-01  1.3768664536746048e-01  1.3460559641853809e-01  1.2868575614025080e-01  1.1995720913048655e-01  1.0853787605462362e-01  9.4631224841090225e-02  7.8520936309882244e-02  6.0562737177629250e-02  4.1173723084243080e-02  2.0819553586652106e-02  0.0000000000000000e+00  0.0000000000000000e+00  -1.0254330466502085e-03  -1.6257307184933457e-03  -1.4032131918191911e-03  -1.6671071437491419e-14  2.8849254067146936e-03  7.4809097807674030e-03  1.3933689172225951e-02  2.2296806336986386e-02  3.2526749153771246e-02  4.4482027349333195e-02  5.7926250826577472e-02  7.2535116359639426e-02  8.7907056404093159e-02  1.0357716013986054e-01  1.1903384812867383e-01  1.3373767307416984e-01  1.4714153431674862e-01  1.5871153616013034e-01  1.6794769215542893e-01  1.7440368017942909e-01  1.7770488648754612e-01  1.7756403968683210e-01  1.7379382543457650e-01  1.6631598627155977e-01  1.5516654407937594e-01  1.4049693012550044e-01  1.2257096362020595e-01  1.0175777708922988e-01  7.8520936309882675e-02  5.3404129744771323e-02  2.7013883819428035e-02  0.0000000000000000e+00  0.0000000000000000e+00  -2.0027606345921550e-03  -3.4739105818822951e-03  -3.9171071980050477e-03  -2.8849254067548485e-03  -2.4169047825470827e-14  5.0266254169181041e-03  1.2380690413249049e-02  2.2134055604272805e-02  3.4238631537657271e-02  4.8525165617729862e-02  6.4706965066046868e-02  8.2388441498799980e-02  1.0107817440840919e-01  1.2020601396228772e-01  1.3914358490676873e-01  1.5722741911077087e-01  1.7378383958846519e-01  1.8815464775764287e-01  1.9972263098875120e-01  2.0793591055383745e-01  2.1233019082341376e-01  2.1254804746424194e-01  2.0835450254812182e-01  1.9964827367520033e-01  1.8646824704830803e-01  1.6899490444548770e-01  1.4754662375639979e-01  1.2257096362020686e-01  9.4631224841091433e-02  6.4388743317174174e-02  3.2581499966433322e-02  0.0000000000000000e+00  0.0000000000000000e+00  -3.4065064881340125e-03  -6.1754539918984219e-03  -7.7124978834722507e-03  -7.4809097808134391e-03  -5.0266254169734886e-03  -3.1703661355111868e-14  7.8266168423918453e-03  1.8546199616901397e-02  3.2109783742684139e-02  4.8324935665587571e-02  6.6860048933297750e-02  8.7254332273431934e-02  1.0893313388008830e-01  1.3122803763569851e-01  1.5340097994271329e-01  1.7467147744588313e-01  1.9424593231654688e-01  2.1134789773369050e-01  2.2524814500084309e-01  2.3529337700547553e-01  2.4093248037023635e-01  2.4173929886240164e-01  2.3743103996477039e-01  2.2788158997198737e-01  2.1312920417869061e-01  1.9337825008315557e-01  1.6899490444548929e-01  1.4049693012550277e-01  1.0853787605462600e-01  7.3886244045571869e-02  3.7400342596141528e-02  0.0000000000000000e+00  0.0000000000000000e+00  -5.2716994956378029e-03  -9.8010714582645372e-03  -1.2896871987514345e-02  -1.3933689172276817e-02  -1.2380690413310204e-02  -7.8266168424617911e-03  -3.8532352553901165e-14  1.1216215320106656e-02  2.5776242682086503e-02  4.3469581270122480e-02  6.3925805966715543e-02  8.6625868694881494e-02  1.1091950612214274e-01  1.3604811066035488e-01  1.6117220793423948e-01  1.8540250279843473e-01  2.0783331456184517e-01  2.2757712580523945e-01  2.4379892179273477e-01  2.5574900083825491e-01  2.6279298999750000e-01  2.6443790306116532e-01  2.6035322508623798e-01  2.5038619392958056e-01  2.3457066719986980e-01  2.1312920417869308e-01  1.8646824704831189e-01  1.5516654407938030e-01  1.1995720913049056e-01  8.1704047633190321e-02  4.1372992255616664e-02  0.0000000000000000e+00  0.0000000000000000e+00  -7.6098514894373743e-03  -1.4374633905677604e-02  -1.9507926603910264e-02  -2.2296806337040946e-02  -2.2134055604338350e-02  -1.8546199616976275e-02  -1.1216215320189047e-02  -4.3961073869152751e-14  1.5064072397731727e-02  3.3752912008956110e-02  5.5663912346436056e-02  8.0227421156414375e-02  1.0672603331123565e-01  1.3431999056379207e-01  1.6207773448824297e-01  1.8901045679448347e-01  2.1410933324369524e-01  2.3638401972093720e-01  2.5490093581493856e-01  2.6881986459576046e-01  2.7742745707047800e-01  2.8016634376022131e-01  2.7665871960756550e-01  2.6672347568516847e-01  2.5038619392958406e-01  2.2788158997199315e-01  1.9964827367520721e-01  1.6631598627156671e-01  1.2868575614025685e-01  8.7703682163075863e-02  4.4429295748588650e-02  0.0000000000000000e+00  0.0000000000000000e+00  -1.0407749036425176e-02  -1.9870749045728241e-02  -2.7509925905978654e-02  -3.2526749153828326e-02  -3.4238631537725765e-02  -3.2109783742762285e-02  -2.5776242682172344e-02  -1.5064072397823147e-02  -4.7398569509622823e-14  1.9185958666505756e-02  4.2066019055990014e-02  6.8028113503942000e-02  9.6296853125207083e-02  1.2596118612626550e-01  1.5600771159931981e-01  1.8535838654403911e-01  2.1291119079786680e-01  2.3758219643699752e-01  2.5834742961393559e-01  2.7428291601087440e-01  2.8460136601936825e-01  2.8868407993752354e-01  2.8610683215387889e-01  2.7665871960757010e-01  2.6035322508624603e-01  2.3743103996478043e-01  2.0835450254813248e-01  1.7379382543458660e-01  1.3460559641854664e-01  9.1804331135385414e-02  4.6528121726531660e-02  0.0000000000000000e+00  0.0000000000000000e+00  -1.3627250350429590e-02  -2.6214340161680685e-02  -3.6793041141197219e-02  -4.4482027349391620e-02  -4.8525165617799890e-02  -4.8324935665667319e-02  -4.3469581270209889e-02  -3.3752912009048952e-02  -1.9185958666601735e-02  -4.8397817464968561e-14  2.3359187878315577e-02  5.0245668556819549e-02  7.9835745136944219e-02  1.1115758615822810e-01  1.4312695986255081e-01  1.7458772056916691e-01  2.0435550434735406e-01  2.3126296366455823e-01  2.5420480718842153e-01  2.7218091390486288e-01  2.8433586009973677e-01  2.8999333090412255e-01  2.8868407993752954e-01  2.8016634376023186e-01  2.6443790306117887e-01  2.4173929886241668e-01  2.1254804746425701e-01  1.7756403968684592e-01  1.3768664536747194e-01  9.3984360641682196e-02  4.7658121699565292e-02  0.0000000000000000e+00  0.0000000000000000e+00  -1.7206104061492526e-02  -3.3282260231591906e-02  -4.7175722261817751e-02  -5.7926250826636064e-02  -6.4706965066117006e-02  -6.6860048933377464e-02  -6.3925805966802696e-02  -5.5663912346528323e-02  -4.2066019056085029e-02  -2.3359187878410959e-02  -4.6725187604076646e-14  2.7340463425972746e-02  5.7800216167506149e-02  9.0357652349309259e-02  1.2386933894837329e-01  1.5711287849397032e-01  1.8883320673749349e-01  2.1779055431306238e-01  2.4280823354745626e-01  2.6281841423584706e-01  2.7690412530858488e-01  2.8433586009974399e-01  2.8460136601938130e-01  2.7742745707049521e-01  2.6279298999751988e-01  2.4093248037025716e-01  2.1233019082343385e-01  1.7770488648756411e-01  1.3798580866441496e-01  9.4280753640046205e-02  4.7837446569973428e-02  0.0000000000000000e+00  0.0000000000000000e+00  -2.1059765935307846e-02  -4.0906893825053331e-02  -5.8410030389062832e-02  -7.2535116359697088e-02  -8.2388441498868870e-02  -8.7254332273510052e-02  -8.6625868694966648e-02  -8.0227421156504164e-02  -6.8028113504034066e-02  -5.0245668556911434e-02  -2.7340463426062118e-02  -4.2350665837587333e-14  3.0885633643147177e-02  6.4256386630765161e-02  9.8921716000401477e-02  1.3360540132348120e-01  1.6699399152692518e-01  1.9778702945709054e-01  2.2474712809499431e-01  2.4674797457612219e-01  2.6281841423585556e-01  2.7218091390487853e-01  2.7428291601089555e-01  2.6881986459578538e-01  2.5574900083828189e-01  2.3529337700550265e-01  2.0793591055386301e-01  1.7440368017945157e-01  1.3564303854529763e-01  9.2786468031405986e-02  4.7112422768751286e-02  0.0000000000000000e+00  0.0000000000000000e+00  -2.5084150209666544e-02  -4.8881620891238403e-02  -7.0189744034455409e-02  -8.7907056404148864e-02  -1.0107817440847561e-01  -1.0893313388016340e-01  -1.1091950612222432e-01  -1.0672603331132130e-01  -9.6296853125294346e-02  -7.9835745137030734e-02  -5.7800216167589527e-02  -3.0885633643225274e-02  -3.5448900112265470e-14  3.3769677427991474e-02  6.9198141704807120e-02  1.0496821152583885e-01  1.3972090482238200e-01  1.7210744076516157e-01  2.0084112542394322e-01  2.2474712809500400e-01  2.4280823354747427e-01  2.5420480718844629e-01  2.5834742961396551e-01  2.5490093581497164e-01  2.4379892179276919e-01  2.2524814500087698e-01  1.9972263098878260e-01  1.6794769215545619e-01  1.3087445061706848e-01  8.9645821112329327e-02  4.5555237661013701e-02  0.0000000000000000e+00  0.0000000000000000e+00  -2.9159215346472214e-02  -5.6967943223048864e-02  -8.2160942978373244e-02  -1.0357716013991340e-01  -1.2020601396235057e-01  -1.3122803763576937e-01  -1.3604811066043154e-01  -1.3431999056387206e-01  -1.2596118612634644e-01  -1.1115758615830762e-01  -9.0357652349385031e-02  -6.4256386630835050e-02  -3.3769677428053591e-02  -2.6421158182404397e-14  3.5805220470414130e-02  7.2300991063855319e-02  1.0809606435089683e-01  1.4180621573571905e-01  1.7210744076517223e-01  1.9778702945711069e-01  2.1779055431309063e-01  2.3126296366459287e-01  2.3758219643703674e-01  2.3638401972097900e-01  2.2757712580528178e-01  2.1134789773373136e-01  1.8815464775768020e-01  1.5871153616016251e-01  1.2396277340380926e-01  8.5048081257912356e-02  4.3260724166874584e-02  0.0000000000000000e+00  0.0000000000000000e+00  -3.3153251028309683e-02  -6.4904008755996140e-02  -9.3934676060213468e-02  -1.1903384812872309e-01  -1.3914358490682716e-01  -1.5340097994277893e-01  -1.6117220793431003e-01  -1.6207773448831608e-01  -1.5600771159939314e-01  -1.4312695986262203e-01  -1.2386933894844016e-01  -9.8921716000461818e-02  -6.9198141704859231e-02  -3.5805220470456561e-02  -1.5850463404043330e-14  3.6858006474404383e-02  7.3358825925617779e-02  1.0809606435090804e-01  1.3972090482240371e-01  1.6699399152695610e-01  1.8883320673753221e-01  2.0435550434739866e-01  2.1291119079791543e-01  2.1410933324374570e-01  2.0783331456189533e-01  1.9424593231659462e-01  1.7378383958850846e-01  1.4714153431678562e-01  1.1524550482482303e-01  7.9219517120097643e-02  4.0342369840627140e-02  0.0000000000000000e+00  0.0000000000000000e+00  -3.6927705391460813e-02  -7.2414213419608464e-02  -1.0510123659096629e-01  -1.3373767307421497e-01  -1.5722741911082422e-01  -1.7467147744594266e-01  -1.8540250279849835e-01  -1.8901045679454884e-01  -1.8535838654410391e-01  -1.7458772056922889e-01  -1.5711287849402733e-01  -1.3360540132353121e-01  -1.0496821152588016e-01  -7.2300991063886599e-02  -3.6858006474424714e-02  -4.4155179755692018e-15  3.6858006474415936e-02  7.2300991063877967e-02  1.0496821152587174e-01  1.3360540132352300e-01  1.5711287849401945e-01  1.7458772056922139e-01  1.8535838654409692e-01  1.8901045679454243e-01  1.8540250279849257e-01  1.7467147744593753e-01  1.5722741911081983e-01  1.3373767307421147e-01  1.0510123659096364e-01  7.2414213419606716e-02  3.6927705391459925e-02  0.0000000000000000e+00  0.0000000000000000e+00  -4.0342369840628035e-02  -7.9219517120099406e-02  -1.1524550482482566e-01  -1.4714153431678911e-01  -1.7378383958851285e-01  -1.9424593231659976e-01  -2.0783331456190118e-01  -2.1410933324375220e-01  -2.1291119079792248e-01  -2.0435550434740618e-01  -1.8883320673754009e-01  -1.6699399152696429e-01  -1.3972090482241212e-01  -1.0809606435091668e-01  -7.3358825925626536e-02  -3.6858006474413202e-02  7.0910415166289732e-15  3.5805220470447943e-02  6.9198141704850807e-02  9.8921716000453644e-02  1.2386933894843230e-01  1.4312695986261464e-01  1.5600771159938626e-01  1.6207773448830981e-01  1.6117220793430431e-01  1.5340097994277388e-01  1.3914358490682285e-01  1.1903384812871964e-01  9.3934676060210873e-02  6.4904008755994419e-02  3.3153251028308808e-02  0.0000000000000000e+00  0.0000000000000000e+00  -4.3260724166875458e-02  -8.5048081257914090e-02  -1.2396277340381187e-01  -1.5871153616016598e-01  -1.8815464775768453e-01  -2.1134789773373641e-01  -2.2757712580528758e-01  -2.3638401972098547e-01  -2.3758219643704381e-01  -2.3126296366460039e-01  -2.1779055431309846e-01  -1.9778702945711876e-01  -1.7210744076518050e-01  -1.4180621573572760e-01  -1.0809606435090552e-01  -7.2300991063864034e-02  -3.5805220470422769e-02  1.7919164899678911e-14  3.3769677428045278e-02  6.4256386630826973e-02  9.0357652349377315e-02  1.1115758615830038e-01  1.2596118612633972e-01  1.3431999056386587e-01  1.3604811066042599e-01  1.3122803763576446e-01  1.2020601396234643e-01  1.0357716013991003e-01  8.2160942978370705e-02  5.6967943223047164e-02  2.9159215346471361e-02  0.0000000000000000e+00  0.0000000000000000e+00  -4.5555237661014547e-02  -8.9645821112331048e-02  -1.3087445061707104e-01  -1.6794769215545957e-01  -1.9972263098878684e-01  -2.2524814500088192e-01  -2.4379892179277496e-01  -2.5490093581497802e-01  -2.5834742961397250e-01  -2.5420480718845373e-01  -2.4280823354748199e-01  -2.2474712809501193e-01  -2.0084112542395141e-01  -1.7210744076517004e-01  -1.3972090482239052e-01  -1.0496821152584740e-01  -6.9198141704815558e-02  -3.3769677427999759e-02  2.7353284831740813e-14  3.0885633643217430e-02  5.7800216167582061e-02  7.9835745137023698e-02  9.6296853125287837e-02  1.0672603331131533e-01  1.1091950612221893e-01  1.0893313388015866e-01  1.0107817440847155e-01  8.7907056404145589e-02  7.0189744034452939e-02  4.8881620891236738e-02  2.5084150209665715e-02  0.0000000000000000e+00  0.0000000000000000e+00  -4.7112422768752112e-02  -9.2786468031407651e-02  -1.3564303854530013e-01  -1.7440368017945485e-01  -2.0793591055386706e-01  -2.3529337700550740e-01  -2.5574900083828733e-01  -2.6881986459579144e-01  -2.7428291601090216e-01  -2.7218091390488558e-01  -2.6281841423586294e-01  -2.4674797457612993e-01  -2.2474712809500230e-01  -1.9778702945709870e-01  -1.6699399152693339e-01  -1.3360540132348941e-01  -9.8921716000409582e-02  -6.4256386630773127e-02  -3.0885633643154956e-02  3.4817945581481005e-14  2.7340463426054940e-02  5.0245668556904662e-02  6.8028113504027793e-02  8.0227421156498446e-02  8.6625868694961486e-02  8.7254332273505500e-02  8.2388441498864984e-02  7.2535116359693924e-02  5.8410030389060445e-02  4.0906893825051735e-02  2.1059765935307048e-02  0.0000000000000000e+00  0.0000000000000000e+00  -4.7837446569974219e-02  -9.4280753640047787e-02  -1.3798580866441729e-01  -1.7770488648756722e-01  -2.1233019082343768e-01  -2.4093248037026169e-01  -2.6279298999752504e-01  -2.7742745707050104e-01  -2.8460136601938762e-01  -2.8433586009975070e-01  -2.7690412530859193e-01  -2.6281841423585445e-01  -2.4280823354746400e-01  -2.1779055431307021e-01  -1.8883320673750137e-01  -1.5711287849397818e-01  -1.2386933894838104e-01  -9.0357652349316878e-02  -5.7800216167513574e-02  -2.7340463425979920e-02  3.9889083786000965e-14  2.3359187878404519e-02  4.2066019056079061e-02  5.5663912346522876e-02  6.3925805966797783e-02  6.6860048933373134e-02  6.4706965066113301e-02  5.7926250826633066e-02  4.7175722261815489e-02  3.3282260231590394e-02  1.7206104061491770e-02  0.0000000000000000e+00  0.0000000000000000e+00  -4.7658121699566035e-02  -9.3984360641683695e-02  -1.3768664536747416e-01  -1.7756403968684886e-01  -2.1254804746426070e-01  -2.4173929886242099e-01  -2.6443790306118375e-01  -2.8016634376023725e-01  -2.8868407993753542e-01  -2.8999333090412882e-01  -2.8433586009974343e-01  -2.7218091390486987e-01  -2.5420480718842875e-01  -2.3126296366456561e-01  -2.0435550434736144e-01  -1.7458772056917427e-01  -1.4312695986255808e-01  -1.1115758615823526e-01  -7.9835745136951214e-02  -5.0245668556826301e-02  -2.3359187878322002e-02  4.2354043583986397e-14  1.9185958666596122e-02  3.3752912009043838e-02  4.3469581270205282e-02  4.8324935665663267e-02  4.8525165617796434e-02  4.4482027349388817e-02  3.6793041141195096e-02  2.6214340161679259e-02  1.3627250350428877e-02  0.0000000000000000e+00  0.0000000000000000e+00  -4.6528121726532354e-02  -9.1804331135386802e-02  -1.3460559641854872e-01  -1.7379382543458932e-01  -2.0835450254813587e-01  -2.3743103996478443e-01  -2.6035322508625058e-01  -2.7665871960757515e-01  -2.8610683215388433e-01  -2.8868407993752943e-01  -2.8460136601937447e-01  -2.7428291601088095e-01  -2.5834742961394230e-01  -2.3758219643700440e-01  -2.1291119079787371e-01  -1.8535838654404596e-01  -1.5600771159932658e-01  -1.2596118612627213e-01  -9.6296853125213550e-02  -6.8028113503948273e-02  -4.2066019055995975e-02  -1.9185958666511363e-02  4.2191623221508361e-14  1.5064072397818387e-02  2.5776242682168066e-02  3.2109783742758538e-02  3.4238631537722566e-02  3.2526749153825724e-02  2.7509925905976673e-02  1.9870749045726919e-02  1.0407749036424517e-02  0.0000000000000000e+00  0.0000000000000000e+00  -4.4429295748589288e-02  -8.7703682163077140e-02  -1.2868575614025873e-01  -1.6631598627156924e-01  -1.9964827367521032e-01  -2.2788158997199678e-01  -2.5038619392958816e-01  -2.6672347568517307e-01  -2.7665871960757049e-01  -2.8016634376022675e-01  -2.7742745707048366e-01  -2.6881986459576646e-01  -2.5490093581494477e-01  -2.3638401972094350e-01  -2.1410933324370154e-01  -1.8901045679448972e-01  -1.6207773448824914e-01  -1.3431999056379809e-01  -1.0672603331124154e-01  -8.0227421156420037e-02  -5.5663912346441483e-02  -3.3752912008961217e-02  -1.5064072397736479e-02  3.9617750244704035e-14  1.121621532018513