<?xml version="1.0"?>
<VTKFile type="UnstructuredGrid"  version="0.1"  >
<UnstructuredGrid>
<Piece  NumberOfPoints="1089" NumberOfCells="2048">
<Points>
<DataArray  type="Float64"  NumberOfComponents="3"  format="ascii">0 0 0  0.03125 0 0  0.0625 0 0  0.09375 0 0  0.125 0 0  0.15625 0 0  0.1875 0 0  0.21875 0 0  0.25 0 0  0.28125 0 0  0.3125 0 0  0.34375 0 0  0.375 0 0  0.40625 0 0  0.4375 0 0  0.46875 0 0  0.5 0 0  0.53125 0 0  0.5625 0 0  0.59375 0 0  0.625 0 0  0.65625 0 0  0.6875 0 0  0.71875 0 0  0.75 0 0  0.78125 0 0  0.8125 0 0  0.84375 0 0  0.875 0 0  0.90625 0 0  0.9375 0 0  0.96875 0 0  1 0 0  0 0.03125 0  0.03125 0.03125 0  0.0625 0.03125 0  0.09375 0.03125 0  0.125 0.03125 0  0.15625 0.03125 0  0.1875 0.03125 0  0.21875 0.03125 0  0.25 0.03125 0  0.28125 0.03125 0  0.3125 0.03125 0  0.34375 0.03125 0  0.375 0.03125 0  0.40625 0.03125 0  0.4375 0.03125 0  0.46875 0.03125 0  0.5 0.03125 0  0.53125 0.03125 0  0.5625 0.03125 0  0.59375 0.03125 0  0.625 0.03125 0  0.65625 0.03125 0  0.6875 0.03125 0  0.71875 0.03125 0  0.75 0.03125 0  0.78125 0.03125 0  0.8125 0.03125 0  0.84375 0.03125 0  0.875 0.03125 0  0.90625 0.03125 0  0.9375 0.03125 0  0.96875 0.03125 0  1 0.03125 0  0 0.0625 0  0.03125 0.0625 0  0.0625 0.0625 0  0.09375 0.0625 0  0.125 0.0625 0  0.15625 0.0625 0  0.1875 0.0625 0  0.21875 0.0625 0  0.25 0.0625 0  0.28125 0.0625 0  0.3125 0.0625 0  0.34375 0.0625 0  0.375 0.0625 0  0.40625 0.0625 0  0.4375 0.0625 0  0.46875 0.0625 0  0.5 0.0625 0  0.53125 0.0625 0  0.5625 0.0625 0  0.59375 0.0625 0  0.625 0.0625 0  0.65625 0.0625 0  0.6875 0.0625 0  0.71875 0.0625 0  0.75 0.0625 0  0.78125 0.0625 0  0.8125 0.0625 0  0.84375 0.0625 0  0.875 0.0625 0  0.90625 0.0625 0  0.9375 0.0625 0  0.96875 0.0625 0  1 0.0625 0  0 0.09375 0  0.03125 0.09375 0  0.0625 0.09375 0  0.09375 0.09375 0  0.125 0.09375 0  0.15625 0.09375 0  0.1875 0.09375 0  0.21875 0.09375 0  0.25 0.09375 0  0.28125 0.09375 0  0.3125 0.09375 0  0.34375 0.09375 0  0.375 0.09375 0  0.40625 0.09375 0  0.4375 0.09375 0  0.46875 0.09375 0  0.5 0.09375 0  0.53125 0.09375 0  0.5625 0.09375 0  0.59375 0.09375 0  0.625 0.09375 0  0.65625 0.09375 0  0.6875 0.09375 0  0.71875 0.09375 0  0.75 0.09375 0  0.78125 0.09375 0  0.8125 0.09375 0  0.84375 0.09375 0  0.875 0.09375 0  0.90625 0.09375 0  0.9375 0.09375 0  0.96875 0.09375 0  1 0.09375 0  0 0.125 0  0.03125 0.125 0  0.0625 0.125 0  0.09375 0.125 0  0.125 0.125 0  0.15625 0.125 0  0.1875 0.125 0  0.21875 0.125 0  0.25 0.125 0  0.28125 0.125 0  0.3125 0.125 0  0.34375 0.125 0  0.375 0.125 0  0.40625 0.125 0  0.4375 0.125 0  0.46875 0.125 0  0.5 0.125 0  0.53125 0.125 0  0.5625 0.125 0  0.59375 0.125 0  0.625 0.125 0  0.65625 0.125 0  0.6875 0.125 0  0.71875 0.125 0  0.75 0.125 0  0.78125 0.125 0  0.8125 0.125 0  0.84375 0.125 0  0.875 0.125 0  0.90625 0.125 0  0.9375 0.125 0  0.96875 0.125 0  1 0.125 0  0 0.15625 0  0.03125 0.15625 0  0.0625 0.15625 0  0.09375 0.15625 0  0.125 0.15625 0  0.15625 0.15625 0  0.1875 0.15625 0  0.21875 0.15625 0  0.25 0.15625 0  0.28125 0.15625 0  0.3125 0.15625 0  0.34375 0.15625 0  0.375 0.15625 0  0.40625 0.15625 0  0.4375 0.15625 0  0.46875 0.15625 0  0.5 0.15625 0  0.53125 0.15625 0  0.5625 0.15625 0  0.59375 0.15625 0  0.625 0.15625 0  0.65625 0.15625 0  0.6875 0.15625 0  0.71875 0.15625 0  0.75 0.15625 0  0.78125 0.15625 0  0.8125 0.15625 0  0.84375 0.15625 0  0.875 0.15625 0  0.90625 0.15625 0  0.9375 0.15625 0  0.96875 0.15625 0  1 0.15625 0  0 0.1875 0  0.03125 0.1875 0  0.0625 0.1875 0  0.09375 0.1875 0  0.125 0.1875 0  0.15625 0.1875 0  0.1875 0.1875 0  0.21875 0.1875 0  0.25 0.1875 0  0.28125 0.1875 0  0.3125 0.1875 0  0.34375 0.1875 0  0.375 0.1875 0  0.40625 0.1875 0  0.4375 0.1875 0  0.46875 0.1875 0  0.5 0.1875 0  0.53125 0.1875 0  0.5625 0.1875 0  0.59375 0.1875 0  0.625 0.1875 0  0.65625 0.1875 0  0.6875 0.1875 0  0.71875 0.1875 0  0.75 0.1875 0  0.78125 0.1875 0  0.8125 0.1875 0  0.84375 0.1875 0  0.875 0.1875 0  0.90625 0.1875 0  0.9375 0.1875 0  0.96875 0.1875 0  1 0.1875 0  0 0.21875 0  0.03125 0.21875 0  0.0625 0.21875 0  0.09375 0.21875 0  0.125 0.21875 0  0.15625 0.21875 0  0.1875 0.21875 0  0.21875 0.21875 0  0.25 0.21875 0  0.28125 0.21875 0  0.3125 0.21875 0  0.34375 0.21875 0  0.375 0.21875 0  0.40625 0.21875 0  0.4375 0.21875 0  0.46875 0.21875 0  0.5 0.21875 0  0.53125 0.21875 0  0.5625 0.21875 0  0.59375 0.21875 0  0.625 0.21875 0  0.65625 0.21875 0  0.6875 0.21875 0  0.71875 0.21875 0  0.75 0.21875 0  0.78125 0.21875 0  0.8125 0.21875 0  0.84375 0.21875 0  0.875 0.21875 0  0.90625 0.21875 0  0.9375 0.21875 0  0.96875 0.21875 0  1 0.21875 0  0 0.25 0  0.03125 0.25 0  0.0625 0.25 0  0.09375 0.25 0  0.125 0.25 0  0.15625 0.25 0  0.1875 0.25 0  0.21875 0.25 0  0.25 0.25 0  0.28125 0.25 0  0.3125 0.25 0  0.34375 0.25 0  0.375 0.25 0  0.40625 0.25 0  0.4375 0.25 0  0.46875 0.25 0  0.5 0.25 0  0.53125 0.25 0  0.5625 0.25 0  0.59375 0.25 0  0.625 0.25 0  0.65625 0.25 0  0.6875 0.25 0  0.71875 0.25 0  0.75 0.25 0  0.78125 0.25 0  0.8125 0.25 0  0.84375 0.25 0  0.875 0.25 0  0.90625 0.25 0  0.9375 0.25 0  0.96875 0.25 0  1 0.25 0  0 0.28125 0  0.03125 0.28125 0  0.0625 0.28125 0  0.09375 0.28125 0  0.125 0.28125 0  0.15625 0.28125 0  0.1875 0.28125 0  0.21875 0.28125 0  0.25 0.28125 0  0.28125 0.28125 0  0.3125 0.28125 0  0.34375 0.28125 0  0.375 0.28125 0  0.40625 0.28125 0  0.4375 0.28125 0  0.46875 0.28125 0  0.5 0.28125 0  0.53125 0.28125 0  0.5625 0.28125 0  0.59375 0.28125 0  0.625 0.28125 0  0.65625 0.28125 0  0.6875 0.28125 0  0.71875 0.28125 0  0.75 0.28125 0  0.78125 0.28125 0  0.8125 0.28125 0  0.84375 0.28125 0  0.875 0.28125 0  0.90625 0.28125 0  0.9375 0.28125 0  0.96875 0.28125 0  1 0.28125 0  0 0.3125 0  0.03125 0.3125 0  0.0625 0.3125 0  0.09375 0.3125 0  0.125 0.3125 0  0.15625 0.3125 0  0.1875 0.3125 0  0.21875 0.3125 0  0.25 0.3125 0  0.28125 0.3125 0  0.3125 0.3125 0  0.34375 0.3125 0  0.375 0.3125 0  0.40625 0.3125 0  0.4375 0.3125 0  0.46875 0.3125 0  0.5 0.3125 0  0.53125 0.3125 0  0.5625 0.3125 0  0.59375 0.3125 0  0.625 0.3125 0  0.65625 0.3125 0  0.6875 0.3125 0  0.71875 0.3125 0  0.75 0.3125 0  0.78125 0.3125 0  0.8125 0.3125 0  0.84375 0.3125 0  0.875 0.3125 0  0.90625 0.3125 0  0.9375 0.3125 0  0.96875 0.3125 0  1 0.3125 0  0 0.34375 0  0.03125 0.34375 0  0.0625 0.34375 0  0.09375 0.34375 0  0.125 0.34375 0  0.15625 0.34375 0  0.1875 0.34375 0  0.21875 0.34375 0  0.25 0.34375 0  0.28125 0.34375 0  0.3125 0.34375 0  0.34375 0.34375 0  0.375 0.34375 0  0.40625 0.34375 0  0.4375 0.34375 0  0.46875 0.34375 0  0.5 0.34375 0  0.53125 0.34375 0  0.5625 0.34375 0  0.59375 0.34375 0  0.625 0.34375 0  0.65625 0.34375 0  0.6875 0.34375 0  0.71875 0.34375 0  0.75 0.34375 0  0.78125 0.34375 0  0.8125 0.34375 0  0.84375 0.34375 0  0.875 0.34375 0  0.90625 0.34375 0  0.9375 0.34375 0  0.96875 0.34375 0  1 0.34375 0  0 0.375 0  0.03125 0.375 0  0.0625 0.375 0  0.09375 0.375 0  0.125 0.375 0  0.15625 0.375 0  0.1875 0.375 0  0.21875 0.375 0  0.25 0.375 0  0.28125 0.375 0  0.3125 0.375 0  0.34375 0.375 0  0.375 0.375 0  0.40625 0.375 0  0.4375 0.375 0  0.46875 0.375 0  0.5 0.375 0  0.53125 0.375 0  0.5625 0.375 0  0.59375 0.375 0  0.625 0.375 0  0.65625 0.375 0  0.6875 0.375 0  0.71875 0.375 0  0.75 0.375 0  0.78125 0.375 0  0.8125 0.375 0  0.84375 0.375 0  0.875 0.375 0  0.90625 0.375 0  0.9375 0.375 0  0.96875 0.375 0  1 0.375 0  0 0.40625 0  0.03125 0.40625 0  0.0625 0.40625 0  0.09375 0.40625 0  0.125 0.40625 0  0.15625 0.40625 0  0.1875 0.40625 0  0.21875 0.40625 0  0.25 0.40625 0  0.28125 0.40625 0  0.3125 0.40625 0  0.34375 0.40625 0  0.375 0.40625 0  0.40625 0.40625 0  0.4375 0.40625 0  0.46875 0.40625 0  0.5 0.40625 0  0.53125 0.40625 0  0.5625 0.40625 0  0.59375 0.40625 0  0.625 0.40625 0  0.65625 0.40625 0  0.6875 0.40625 0  0.71875 0.40625 0  0.75 0.40625 0  0.78125 0.40625 0  0.8125 0.40625 0  0.84375 0.40625 0  0.875 0.40625 0  0.90625 0.40625 0  0.9375 0.40625 0  0.96875 0.40625 0  1 0.40625 0  0 0.4375 0  0.03125 0.4375 0  0.0625 0.4375 0  0.09375 0.4375 0  0.125 0.4375 0  0.15625 0.4375 0  0.1875 0.4375 0  0.21875 0.4375 0  0.25 0.4375 0  0.28125 0.4375 0  0.3125 0.4375 0  0.34375 0.4375 0  0.375 0.4375 0  0.40625 0.4375 0  0.4375 0.4375 0  0.46875 0.4375 0  0.5 0.4375 0  0.53125 0.4375 0  0.5625 0.4375 0  0.59375 0.4375 0  0.625 0.4375 0  0.65625 0.4375 0  0.6875 0.4375 0  0.71875 0.4375 0  0.75 0.4375 0  0.78125 0.4375 0  0.8125 0.4375 0  0.84375 0.4375 0  0.875 0.4375 0  0.90625 0.4375 0  0.9375 0.4375 0  0.96875 0.4375 0  1 0.4375 0  0 0.46875 0  0.03125 0.46875 0  0.0625 0.46875 0  0.09375 0.46875 0  0.125 0.46875 0  0.15625 0.46875 0  0.1875 0.46875 0  0.21875 0.46875 0  0.25 0.46875 0  0.28125 0.46875 0  0.3125 0.46875 0  0.34375 0.46875 0  0.375 0.46875 0  0.40625 0.46875 0  0.4375 0.46875 0  0.46875 0.46875 0  0.5 0.46875 0  0.53125 0.46875 0  0.5625 0.46875 0  0.59375 0.46875 0  0.625 0.46875 0  0.65625 0.46875 0  0.6875 0.46875 0  0.71875 0.46875 0  0.75 0.46875 0  0.78125 0.46875 0  0.8125 0.46875 0  0.84375 0.46875 0  0.875 0.46875 0  0.90625 0.46875 0  0.9375 0.46875 0  0.96875 0.46875 0  1 0.46875 0  0 0.5 0  0.03125 0.5 0  0.0625 0.5 0  0.09375 0.5 0  0.125 0.5 0  0.15625 0.5 0  0.1875 0.5 0  0.21875 0.5 0  0.25 0.5 0  0.28125 0.5 0  0.3125 0.5 0  0.34375 0.5 0  0.375 0.5 0  0.40625 0.5 0  0.4375 0.5 0  0.46875 0.5 0  0.5 0.5 0  0.53125 0.5 0  0.5625 0.5 0  0.59375 0.5 0  0.625 0.5 0  0.65625 0.5 0  0.6875 0.5 0  0.71875 0.5 0  0.75 0.5 0  0.78125 0.5 0  0.8125 0.5 0  0.84375 0.5 0  0.875 0.5 0  0.90625 0.5 0  0.9375 0.5 0  0.96875 0.5 0  1 0.5 0  0 0.53125 0  0.03125 0.53125 0  0.0625 0.53125 0  0.09375 0.53125 0  0.125 0.53125 0  0.15625 0.53125 0  0.1875 0.53125 0  0.21875 0.53125 0  0.25 0.53125 0  0.28125 0.53125 0  0.3125 0.53125 0  0.34375 0.53125 0  0.375 0.53125 0  0.40625 0.53125 0  0.4375 0.53125 0  0.46875 0.53125 0  0.5 0.53125 0  0.53125 0.53125 0  0.5625 0.53125 0  0.59375 0.53125 0  0.625 0.53125 0  0.65625 0.53125 0  0.6875 0.53125 0  0.71875 0.53125 0  0.75 0.53125 0  0.78125 0.531
[...]
<PointData  Scalars="theta"> 
<DataArray  type="Float64"  Name="theta"  format="ascii">-1.6438268853525038e-02  -1.6438268853525020e-02  -1.1830512203510066e-03  -1.6588110566331939e-02  -3.9704603497888978e-03  -1.5093699595526843e-02  -1.4657811630199606e-03  -5.0892520081533216e-03  -3.3903743204944038e-03  -3.3197571717161471e-02  -2.0132151856061861e-02  -5.9009838637913087e-03  -8.2229138893724759e-04  -1.2930437492627558e-02  -3.0644935675068461e-02  -4.9684044134608151e-03  -2.2615259713029075e-02  -2.5474196490253630e-02  -9.9118634903594197e-03  -1.0166708943408450e-03  -9.1231320903613583e-04  -5.2048066615026844e-03  -1.0405172755135023e-02  -1.6636185147734739e-02  -2.5179877177087025e-02  -3.6027548579779911e-02  -5.0723657153006283e-03  -2.5136461040817633e-02  -4.2181675228903419e-02  -2.5136461040817612e-02  -5.5222935999286382e-03  -3.6027548579780022e-02  -3.0119870904113850e-02  -9.0687126440293288e-04  -1.4177041439936642e-02  -1.4177041439936628e-02  -1.0515165468725786e-03  -1.5277874200269843e-02  0.0000000000000000e+00  -1.2455456145733401e-02  -1.3629783562020908e-03  -4.1996963568113714e-03  0.0000000000000000e+00  -3.0575412577647267e-02  -1.7893807501013947e-02  -5.0892520081533416e-03  -7.0917802844954316e-04  -1.1492798238917674e-02  -2.8224400256248481e-02  0.0000000000000000e+00  -1.8662314947853108e-02  -2.3687559462368491e-02  -8.1793585625127528e-03  0.0000000000000000e+00  -8.4025280535495416e-04  -4.6261228877469045e-03  -8.9738503886080314e-03  -1.4347732619747098e-02  -2.2380313755198670e-02  -3.3181859546026704e-02  0.0000000000000000e+00  -2.0742832873500820e-02  -3.9223256387664676e-02  -2.0742832873500802e-02  0.0000000000000000e+00  -3.3181859546026815e-02  -6.1892032284101084e-03  -7.4835829294920208e-04  -1.1699021622485949e-02  -1.1699021622485936e-02  -9.0687126440293462e-04  -1.3868047327580218e-02  -3.2082779473461470e-02  -9.5931358699702651e-03  -1.2553215015343798e-03  -3.2345870991895612e-03  -3.2260271534043254e-02  -2.7753944241772497e-02  -1.5432358037246982e-02  -4.1996963568113879e-03  -5.8522006330964345e-04  -9.9118634903593902e-03  -2.5619880973971360e-02  -3.9703872601925760e-02  -1.4373630387214554e-02  -2.1816562659764203e-02  -6.2997048924834289e-03  -1.1900767266703437e-03  -7.6271512116448379e-04  -3.9897592909707872e-03  -7.4053017463528333e-03  -1.1839877513458013e-02  -1.9301706181682043e-02  -3.0119870904113753e-02  -4.2181675228903447e-02  -1.5976035863748145e-02  -3.6125149661826776e-02  -1.5976035863748132e-02  -3.8744930774379883e-02  0.0000000000000000e+00  -4.2145228069012794e-03  -5.7638216534846827e-04  -9.0105334286510255e-03  -9.0105334286510168e-03  -7.4835829294920360e-04  -1.2326162204064234e-02  -2.9832648373676239e-02  -6.5324224171708573e-03  -1.1394816953199133e-03  -2.2025841772116005e-03  -2.9997691998928086e-02  -2.4668189431852332e-02  -1.2734920126219518e-02  -3.2345870991895742e-03  -4.5073384029256208e-04  -8.1793585625127285e-03  -2.2771396799746282e-02  -3.6919234862000390e-02  -9.7876884712422615e-03  -1.9803352189232293e-02  -4.2897686448953873e-03  -1.1066104965693443e-03  -6.7791449487404794e-04  -3.2923851151407824e-03  -5.7035298410348040e-03  -9.1190199974583511e-03  -1.5927940884355493e-02  -2.6771066290726387e-02  -3.9223256387664704e-02  -1.0878842562895697e-02  -3.2791557166852690e-02  -1.0878842562895688e-02  -6.8802635400498045e-03  -2.3096262540249251e-02  -2.1393665905860191e-03  -3.9248602634369702e-04  -6.1357007091123149e-03  -6.1357007091123097e-03  -5.7638216534846947e-04  -1.0630590965479079e-02  -2.7476272664771307e-02  -3.3159735787895222e-03  -1.0127911935476561e-03  -1.1180708273695363e-03  -2.7628280075987381e-02  -2.1274864582141381e-02  -9.8083777610899533e-03  -2.2025841772116092e-03  -3.0692610658434964e-04  -6.2997048924834107e-03  -1.9638992338661954e-02  -3.4003114672787244e-02  -4.9684044134608290e-03  -1.7601564625701328e-02  -2.1775627136729888e-03  -1.0192032352134900e-03  -5.8466143680951780e-04  -2.5357800931788735e-03  -3.8838047011518222e-03  -6.2095743729115877e-03  -1.2267627876865642e-02  -2.3088472367546853e-02  -3.6125149661826804e-02  -5.5222935999286434e-03  -2.9145707612248068e-02  -2.1325394356428084e-03  -6.1152981669381698e-03  -2.1476402307328717e-02  0.0000000000000000e+00  -1.9923287415994233e-04  -3.1145905974017205e-03  -3.1145905974017179e-03  -3.9248602634369778e-04  -8.7724589147775908e-03  -2.4940789844559465e-02  0.0000000000000000e+00  -8.7347292156308716e-04  0.0000000000000000e+00  -2.5078770164678233e-02  -1.7556208875908093e-02  -6.6789908567012422e-03  -1.1180708273695406e-03  -1.5580114007924549e-04  -4.2897686448953743e-03  -1.6206272443178307e-02  -3.0865341433366569e-02  0.0000000000000000e+00  -1.5180315721188574e-02  0.0000000000000000e+00  -9.2515218525060950e-04  -4.8246785621999414e-04  -1.7267332549255996e-03  -1.9714882093885776e-03  -3.1520901805093386e-03  -8.3536112106161239e-03  -1.9052814270345188e-02  -3.2791557166852718e-02  0.0000000000000000e+00  -1.4051803417115554e-02  -1.0825148731549515e-03  -5.2740855075903972e-03  -1.9780057012141535e-02  -8.8504806483851780e-03  0.0000000000000000e+00  0.0000000000000000e+00  0.0000000000000000e+00  -1.9923287415994271e-04  -6.7565080956124308e-03  -2.2167808766424164e-02  -1.7839270805424738e-02  -7.2079768118870626e-04  -1.7572134956730663e-02  -2.2290448080134195e-02  -1.3521712503950003e-02  -3.3903743204944125e-03  0.0000000000000000e+00  0.0000000000000000e+00  -2.1775627136729823e-03  -1.2481997581952880e-02  -2.7433653491712177e-02  -3.2956333642479178e-02  -1.2526932548709697e-02  -7.7657735329969557e-03  -8.2229138893725280e-04  -3.7159455610922176e-04  -8.7652045218323789e-04  0.0000000000000000e+00  0.0000000000000000e+00  -4.2404413390461412e-03  -1.4674391195487408e-02  -2.9145707612248096e-02  0.0000000000000000e+00  -1.2489487819566897e-02  0.0000000000000000e+00  -4.3522226166544655e-03  -1.7954773235517855e-02  -8.2297507090901088e-03  -9.0935643458483362e-03  -2.7233718718963355e-02  -1.7423808239222422e-02  0.0000000000000000e+00  -4.6008276692647131e-03  -1.9118433109627169e-02  -1.6588110566331960e-02  -5.5515510708705699e-04  -1.6339710335027621e-02  -1.9224202314895987e-02  -9.2075770714186989e-03  0.0000000000000000e+00  -1.3537442532993744e-03  -7.7657735329969228e-03  0.0000000000000000e+00  -8.4995857372000480e-03  -2.3659914913574612e-02  -3.0644935675068596e-02  -9.6481866715808686e-03  -7.2211197085070983e-03  -7.0917802844954760e-04  -2.5303640450096728e-04  0.0000000000000000e+00  -2.4077032827117099e-02  -3.2390331327760633e-02  0.0000000000000000e+00  -9.9924908083297813e-03  -5.0875284727571282e-04  -1.4633658880869082e-02  -1.0771449716471457e-02  -1.4593919238395398e-03  -3.3520621332062332e-03  -1.5958515428343322e-02  -7.5797117176355467e-03  -8.4557856908095107e-03  -2.5323677305530572e-02  -1.6201786536638979e-02  -1.4657811630199556e-03  -2.3354617961850854e-03  -1.5776702303169618e-02  -1.5277874200269864e-02  -3.7803151291691437e-04  -1.5049094227408563e-02  -1.5863983999049217e-02  -4.6739295691039873e-03  -1.7572134956730712e-02  -1.2587991738674579e-03  -7.2211197085070679e-03  -2.5474196490253589e-02  -4.3145405999966040e-03  -1.9524373779450856e-02  -2.8224400256248609e-02  -6.5699091259383263e-03  -6.6507489234836972e-03  -5.8522006330964714e-04  -1.2844577068249317e-04  -1.5059082582482749e-02  -2.2388386106228706e-02  -3.0118630027278555e-02  -3.8744930774379759e-02  -7.3693548447099390e-03  -3.4643400754352810e-04  -1.3607324769800890e-02  -8.8886968181905029e-03  -1.3570372273793067e-03  -2.2825785144200022e-03  -1.3763282287415286e-02  -6.8802635400498019e-03  -7.7878929931195894e-03  -2.3323449323238765e-02  -1.4922064543552833e-02  -1.3629783562020860e-03  0.0000000000000000e+00  -1.2151144607114448e-02  -1.3868047327580239e-02  -1.9189550655623671e-04  -1.3660378940627100e-02  -1.2218368573682806e-02  0.0000000000000000e+00  -1.6339710335027669e-02  -1.1593710654897852e-03  -6.6507489234836695e-03  -2.3687559462368453e-02  0.0000000000000000e+00  -1.5037584192090486e-02  -2.5619880973971471e-02  -3.3350024976025435e-03  -6.0370244986763973e-03  -4.5073384029256495e-04  0.0000000000000000e+00  -1.4002911309008523e-02  -2.0620006426305536e-02  -2.7739665635890587e-02  -8.5447613825208948e-03  -6.0812576472527016e-03  -1.7585605192782847e-04  -1.2532530163934390e-02  -6.8460340019809831e-03  -1.2498496415296414e-03  -1.1586773729503285e-03  -1.1357583862544519e-02  -6.1152981669381672e-03  -7.0692340567122388e-03  -2.1171184866241480e-02  -1.3545071428297426e-02  -1.2553215015343754e-03  -2.5328845349680686e-02  -8.2742922128596109e-03  -1.2326162204064253e-02  0.0000000000000000e+00  -1.2141582921792115e-02  -8.3200682085438731e-03  -3.2260271534043275e-02  -1.5049094227408608e-02  -1.0523854690566484e-03  -6.0370244986763721e-03  -2.1816562659764165e-02  -3.7950829231021450e-02  -1.0239806191425336e-02  -2.2771396799746380e-02  0.0000000000000000e+00  -5.3658126081387505e-03  -3.0692610658435160e-04  -6.6952436295604958e-03  -1.2896870717197941e-02  -1.8717212962125498e-02  -9.2813773454548574e-04  -7.3693548447099277e-03  -4.6837570770440692e-03  0.0000000000000000e+00  -1.1376040879083758e-02  -4.6617901163317002e-03  -1.1345147730556717e-03  0.0000000000000000e+00  -8.7475596134866211e-03  -5.2740855075903955e-03  -6.2832584561660987e-03  -1.8817318152248925e-02  -1.2039095594863540e-02  -1.1394816953199094e-03  -2.3552402548329538e-02  -4.2001776077593683e-03  -1.0630590965479097e-02  -1.3537442532993711e-03  -1.0471402175160419e-02  -4.2234143157580430e-03  -2.9997691998928103e-02  -1.3660378940627139e-02  -9.3537854943677088e-04  -5.3658126081387271e-03  -1.9803352189232258e-02  -3.5289141480868848e-02  -5.1979073939614267e-03  -1.9638992338662044e-02  -1.6633169083931098e-02  -4.6276982316300766e-03  -1.5580114007924650e-04  -6.2256715987464330e-03  -1.1706760452355702e-02  -3.6893490932110307e-03  -8.0046428500885601e-04  -6.0812576472526921e-03  -3.1893929306726441e-03  -1.4593919238395374e-03  -1.0111223433509786e-02  -2.3664074164868468e-03  -1.0083765064588500e-03  -1.6341410518417934e-02  -5.9566293325996195e-03  -4.3522226166544638e-03  -5.4189413924688994e-03  -1.6228831734656644e-02  -1.0383012874931690e-02  -1.0127911935476526e-03  -2.1692081313819059e-02  0.0000000000000000e+00  -8.7724589147776047e-03  -1.2587991738674551e-03  -8.6410948986755318e-03  0.0000000000000000e+00  -2.7628280075987402e-02  -1.2141582921792151e-02  -8.0670906258777032e-04  -4.6276982316300567e-03  -1.7601564625701296e-02  -3.2501776620328916e-02  0.0000000000000000e+00  -1.6206272443178380e-02  -1.5466598990629219e-02  -3.8188180449038886e-03  0.0000000000000000e+00  -5.7339277500893359e-03  -3.6466215448491802e-03  -3.0444839282749298e-03  -6.6055030014698277e-04  -4.6837570770440623e-03  -1.6189924678920152e-03  -1.3570372273793046e-03  -8.7203363628273536e-03  0.0000000000000000e+00  -8.6966551323073476e-04  -1.5195302960864647e-02  -3.0236907879110262e-03  -3.3520621332062319e-03  -4.4717589907645149e-03  -1.3392177357723991e-02  -8.5681552561589127e-03  -8.7347292156308412e-04  -1.9690357856752605e-02  -3.0328099358244577e-02  -6.7565080956124412e-03  -1.1593710654897828e-03  -6.6553321258087314e-03  -3.5701502565756452e-02  -2.5078770164678250e-02  -1.0471402175160450e-02  -6.6570354655829192e-04  -3.8188180449038726e-03  -1.5180315721188548e-02  -2.9502545347126940e-02  -3.7950829231021568e-02  -1.2481997581952935e-02  -1.4244946869624409e-02  -2.9412363496624152e-03  -9.8112454280321914e-04  0.0000000000000000e+00  -2.4831580256336810e-03  -2.3448477226493810e-03  -5.0875284727571282e-04  -3.1893929306726393e-03  0.0000000000000000e+00  -1.2498496415296394e-03  -7.1960997007936810e-03  -1.4633658880869050e-02  -7.1765577371848152e-04  -1.3995079556695572e-02  0.0000000000000000e+00  -2.2825785144200013e-03  -3.4441285067556364e-03  -1.0314594301822808e-02  -6.5991543437361995e-03  -7.2079768118870388e-04  -1.7501133293345350e-02  -2.8201033041567999e-02  -4.6008276692647209e-03  -1.0523854690566465e-03  -4.5319321399838663e-03  -3.3197571717161443e-02  -2.2290448080134209e-02  -8.6410948986755561e-03  -5.1272185430497848e-04  -2.9412363496624026e-03  -1.2526932548709676e-02  -2.6222376574835327e-02  -3.5289141480868959e-02  -8.4995857372000844e-03  -1.2930437492627594e-02  -2.0028277015107158e-03  -7.4897410031068122e-04  -6.1911231260108578e-03  -1.2604950934153709e-03  -1.5967183240087192e-03  -3.4643400754352810e-04  -1.6189924678920128e-03  -7.3706714235271800e-03  -1.1345147730556697e-03  -5.5424033737386134e-03  -1.3607324769800862e-02  -5.5273522419396314e-04  -1.2703627684149711e-02  -2.1341367419710475e-02  -1.1586773729503283e-03  -2.3452708864028053e-03  -7.0236977725052227e-03  -4.4936780166261112e-03  -5.5515510708705504e-04  -1.5093699595526816e-02  -2.5973532874877723e-02  -2.3354617961850888e-03  -9.3537854943676882e-04  -2.3004892025280214e-03  -3.0575412577647242e-02  -1.9224202314896001e-02  -6.6553321258087505e-03  -3.4913669317660081e-04  -2.0028277015107072e-03  -9.6481866715808513e-03  -2.2615259713029006e-02  -3.2501776620329020e-02  -4.3145405999966240e-03  -1.1492798238917709e-02  -1.6829811617315124e-03  -6.6570123601412490e-04  -5.7569076709577810e-03  0.0000000000000000e+00  -8.1052256529899733e-04  -1.7585605192782847e-04  0.0000000000000000e+00  -6.8537281515112462e-03  -1.0083765064588484e-03  -3.7740860271716060e-03  -1.2532530163934364e-02  -3.7638369957703898e-04  -1.1291205727532838e-02  -1.9844587049332771e-02  0.0000000000000000e+00  -1.1905011338479978e-03  -3.5653536699969002e-03  -2.2810707304462656e-03  -3.7803151291691307e-04  -1.2455456145733379e-02  -2.3576721371805963e-02  0.0000000000000000e+00  -8.0670906258776870e-04  0.0000000000000000e+00  -2.7753944241772476e-02  -1.5863983999049230e-02  -4.5319321399838802e-03  -1.7722798313170865e-04  -1.0166708943408409e-03  -6.5699091259383141e-03  -1.8662314947853049e-02  -2.9502545347127027e-02  0.0000000000000000e+00  -3.7128339366679745e-03  -8.5431111301573768e-04  -5.7412821834736377e-04  -5.3021898321545967e-03  -9.6282085868742064e-03  0.0000000000000000e+00  0.0000000000000000e+00  -1.4119956744131811e-02  -6.3123763301989478e-03  -8.6966551323073335e-04  -1.9157930628129543e-03  -1.1376040879083735e-02  -1.9105904725387425e-04  -9.7380017891455888e-03  -1.8277133087801201e-02  -1.5196810612399497e-03  0.0000000000000000e+00  0.0000000000000000e+00  0.0000000000000000e+00  -1.9189550655623606e-04  -9.5931358699702460e-03  -2.0955400930234326e-02  -8.9887530443607151e-03  -6.6570354655829051e-04  -2.5897150505246064e-02  -2.4668189431852314e-02  -1.2218368573682815e-02  -2.3004892025280288e-03  0.0000000000000000e+00  0.0000000000000000e+00  -3.3350024976025374e-03  -1.4373630387214509e-02  -2.6222376574835407e-02  0.0000000000000000e+00  -3.3000315227586672e-03  0.0000000000000000e+00  -4.7377574996741777e-04  -4.8129090846183199e-03  -8.9529325686456204e-03  -1.1757824936010756e-03  -7.3706714235271626e-03  -1.3129651218269426e-02  -5.7298765881414306e-03  -7.1765577371848033e-04  0.0000000000000000e+00  -1.0111223433509765e-02  0.0000000000000000e+00  -8.0358863288707595e-03  -1.6590537620059249e-02  -1.4130979760531069e-03  -1.7423808239222377e-02  -2.7233718718963403e-02  -9.0935643458483432e-03  0.0000000000000000e+00  -6.5324224171708443e-03  -1.8072802557594837e-02  -8.3583253474669404e-03  -5.1272185430497740e-04  -2.4080849526838786e-02  -2.1274864582141367e-02  -8.3200682085438800e-03  0.0000000000000000e+00  -1.1900767266703361e-03  -1.6633169083931053e-02  0.0000000000000000e+00  -9.7876884712422337e-03  -1.2047879522718715e-03  -9.6344867349273011e-04  -2.8460833721681276e-03  -4.7760328824424459e-03  -3.6489993526984396e-04  -4.2777974900934414e-03  -8.2457719919522190e-03  -1.0933187919251260e-03  -6.8537281515112314e-03  -1.2092586362022080e-02  -5.0928141912409330e-03  -5.5273522419396228e-04  -1.8075646883897373e-02  -8.7203363628273363e-03  -1.5196810612399484e-03  -6.1892032284101119e-03  -1.4745959032803653e-02  -1.3014823493287828e-03  -1.6201786536638941e-02  -2.5323677305530617e-02  -8.4557856908095176e-03  -8.9887530443607064e-03  -3.3159735787895157e-03  -1.4913838602785820e-02  -7.6981306986648483e-03  -3.4913669317659999e-04  -2.2178788128732838e-02  -1.7556208875908082e-02  -4.2234143157580456e-03  -8.5403102297246097e-03  -1.1066104965693374e-03  -1.5466598990629176e-02  -3.2956333642479033e-02  -1.8955957336980723e-03  -8.2039741061048273e-04  -8.9587703977358579e-04  -2.3486134996119085e-03  -4.4410650181004492e-03  -2.4847771880753236e-04  -3.6893490932110281e-03  -7.4848604418282913e-03  -1.0069613954542546e-03  -6.3123763301989339e-03  -1.0976694648946076e-02  -4.3922531306961358e-03  -3.7638369957703833e-04  -1.6807908369039663e-02  -7.1960997007936671e-03  -1.4130979760531058e-03  -4.2145228069012820e-03  -1.2717523611668859e-02  -1.1813828664843349e-03  -1.4922064543552797e-02  -2.3323449323238807e-02  -7.7878929931195964e-03  -8.3583253474669300e-03  0.0000000000000000e+00  -1.1486570895947512e-02  -6.9877549365537197e-03  -1.7722798313170827e-04  -2.0132151856061809e-02  -1.3521712503949995e-02  0.0000000000000000e+00  -7.9413341445754640e-03  -1.0192032352134834e-03  -1.4244946869624369e-02  -4.9373583971122701e-04  -1.5642625839799318e-03  -4.1644828885237511e-04  -8.2511487115060624e-04  -1.8088914724765986e-03  -4.0902809509522804e-03  -1.2613170090131954e-04  -3.0444839282749280e-03  -6.6526744322019434e-03  -9.1404001015790400e-04  -5.7298765881414176e-03  -9.7562775430044147e-03  -3.6245266380257779e-03  -1.9105904725387392e-04  -1.5480310949520839e-02  -5.5424033737386021e-03  -1.3014823493287817e-03  -2.1393665905860204e-03  -1.0494614433323861e-02  -1.0500336848741577e-03  -1.3545071428297393e-02  -2.1171184866241519e-02  -7.0692340567122458e-03  -7.6981306986648387e-03  -3.0328099358244522e-02  -7.8217523690032389e-03  -6.2108383938750660e-03  0.0000000000000000e+00  -1.7893807501013898e-02  -9.2075770714186937e-03  -2.5897150505246130e-02  -7.3140761606317137e-03  -9.2515218525060353e-04  -3.0332808868012748e-04  -4.2581816384314436e-04  -1.2047879522718724e-03  0.0000000000000000e+00  -7.4897410031068035e-04  -1.2317602257698411e-03  -3.7128339366679797e-03  0.0000000000000000e+00  -2.3448477226493793e-03  -5.7375409753995400e-03  -8.1241469401422295e-04  -5.0928141912409217e-03  -8.4142163788151203e-03  -2.7915939886969479e-03  0.0000000000000000e+00  -1.4051803417115550e-02  -3.7740860271715977e-03  -1.1813828664843336e-03  0.0000000000000000e+00  -8.0829044704487443e-03  -9.0559238302018999e-04  -1.2039095594863509e-02  -1.8817318152248960e-02  -6.2832584561661048e-03  -6.9877549365537110e-03  -2.8201033041567947e-02  -3.9704603497889047e-03  -5.3564833420907667e-03  -8.5403102297245768e-03  -1.5432358037246942e-02  -4.6739295691039847e-03  -2.4080849526838848e-02  -6.6391405652086932e-03  -8.7581658547588388e-04  -2.6160266153529816e-04  -3.5138896413287722e-04  -8.2039741061048349e-04  -7.1456850925166152e-04  -6.6570123601412425e-04  -6.2526335610512600e-04  -3.3000315227586711e-03  -1.1757824936010739e-03  -1.5967183240087183e-03  -4.7346702212502185e-03  -7.0065995915276878e-04  -4.3922531306961254e-03  -6.9434867471526171e-03  -1.9009291016598385e-03  -8.2687184199097662e-03  -1.2489487819566894e-02  -1.9157930628129504e-03  -1.0500336848741566e-03  -2.1341367419710464e-02  -5.5040340379098138e-03  -7.4730294857338925e-04  -1.0383012874931666e-02  -1.6228831734656671e-02  -5.4189413924689046e-03  -6.2108383938750582e-03  -2.5973532874877674e-02  0.0000000000000000e+00  -4.4202180479685285e-03  -7.9413341445754345e-03  -1.2734920126219483e-02  0.0000000000000000e+00  -2.2178788128732894e-02  -1.6626737932413219e-04  -7.2273169364876809e-04  -2.1587686025801756e-04  -2.7063818752952725e-04  -4.1644828885237548e-04  -6.6445212744240000e-04  -5.7412821834736322e-04  0.00000000