<?xml version="1.0"?>
<VTKFile type="UnstructuredGrid"  version="0.1"  >
<UnstructuredGrid>
<Piece  NumberOfPoints="1089" NumberOfCells="2048">
<Points>
<DataArray  type="Float64"  NumberOfComponents="3"  format="ascii">0 0 0  0.03125 0 0  0.0625 0 0  0.09375 0 0  0.125 0 0  0.15625 0 0  0.1875 0 0  0.21875 0 0  0.25 0 0  0.28125 0 0  0.3125 0 0  0.34375 0 0  0.375 0 0  0.40625 0 0  0.4375 0 0  0.46875 0 0  0.5 0 0  0.53125 0 0  0.5625 0 0  0.59375 0 0  0.625 0 0  0.65625 0 0  0.6875 0 0  0.71875 0 0  0.75 0 0  0.78125 0 0  0.8125 0 0  0.84375 0 0  0.875 0 0  0.90625 0 0  0.9375 0 0  0.96875 0 0  1 0 0  0 0.03125 0  0.03125 0.03125 0  0.0625 0.03125 0  0.09375 0.03125 0  0.125 0.03125 0  0.15625 0.03125 0  0.1875 0.03125 0  0.21875 0.03125 0  0.25 0.03125 0  0.28125 0.03125 0  0.3125 0.03125 0  0.34375 0.03125 0  0.375 0.03125 0  0.40625 0.03125 0  0.4375 0.03125 0  0.46875 0.03125 0  0.5 0.03125 0  0.53125 0.03125 0  0.5625 0.03125 0  0.59375 0.03125 0  0.625 0.03125 0  0.65625 0.03125 0  0.6875 0.03125 0  0.71875 0.03125 0  0.75 0.03125 0  0.78125 0.03125 0  0.8125 0.03125 0  0.84375 0.03125 0  0.875 0.03125 0  0.90625 0.03125 0  0.9375 0.03125 0  0.96875 0.03125 0  1 0.03125 0  0 0.0625 0  0.03125 0.0625 0  0.0625 0.0625 0  0.09375 0.0625 0  0.125 0.0625 0  0.15625 0.0625 0  0.1875 0.0625 0  0.21875 0.0625 0  0.25 0.0625 0  0.28125 0.0625 0  0.3125 0.0625 0  0.34375 0.0625 0  0.375 0.0625 0  0.40625 0.0625 0  0.4375 0.0625 0  0.46875 0.0625 0  0.5 0.0625 0  0.53125 0.0625 0  0.5625 0.0625 0  0.59375 0.0625 0  0.625 0.0625 0  0.65625 0.0625 0  0.6875 0.0625 0  0.71875 0.0625 0  0.75 0.0625 0  0.78125 0.0625 0  0.8125 0.0625 0  0.84375 0.0625 0  0.875 0.0625 0  0.90625 0.0625 0  0.9375 0.0625 0  0.96875 0.0625 0  1 0.0625 0  0 0.09375 0  0.03125 0.09375 0  0.0625 0.09375 0  0.09375 0.09375 0  0.125 0.09375 0  0.15625 0.09375 0  0.1875 0.09375 0  0.21875 0.09375 0  0.25 0.09375 0  0.28125 0.09375 0  0.3125 0.09375 0  0.34375 0.09375 0  0.375 0.09375 0  0.40625 0.09375 0  0.4375 0.09375 0  0.46875 0.09375 0  0.5 0.09375 0  0.53125 0.09375 0  0.5625 0.09375 0  0.59375 0.09375 0  0.625 0.09375 0  0.65625 0.09375 0  0.6875 0.09375 0  0.71875 0.09375 0  0.75 0.09375 0  0.78125 0.09375 0  0.8125 0.09375 0  0.84375 0.09375 0  0.875 0.09375 0  0.90625 0.09375 0  0.9375 0.09375 0  0.96875 0.09375 0  1 0.09375 0  0 0.125 0  0.03125 0.125 0  0.0625 0.125 0  0.09375 0.125 0  0.125 0.125 0  0.15625 0.125 0  0.1875 0.125 0  0.21875 0.125 0  0.25 0.125 0  0.28125 0.125 0  0.3125 0.125 0  0.34375 0.125 0  0.375 0.125 0  0.40625 0.125 0  0.4375 0.125 0  0.46875 0.125 0  0.5 0.125 0  0.53125 0.125 0  0.5625 0.125 0  0.59375 0.125 0  0.625 0.125 0  0.65625 0.125 0  0.6875 0.125 0  0.71875 0.125 0  0.75 0.125 0  0.78125 0.125 0  0.8125 0.125 0  0.84375 0.125 0  0.875 0.125 0  0.90625 0.125 0  0.9375 0.125 0  0.96875 0.125 0  1 0.125 0  0 0.15625 0  0.03125 0.15625 0  0.0625 0.15625 0  0.09375 0.15625 0  0.125 0.15625 0  0.15625 0.15625 0  0.1875 0.15625 0  0.21875 0.15625 0  0.25 0.15625 0  0.28125 0.15625 0  0.3125 0.15625 0  0.34375 0.15625 0  0.375 0.15625 0  0.40625 0.15625 0  0.4375 0.15625 0  0.46875 0.15625 0  0.5 0.15625 0  0.53125 0.15625 0  0.5625 0.15625 0  0.59375 0.15625 0  0.625 0.15625 0  0.65625 0.15625 0  0.6875 0.15625 0  0.71875 0.15625 0  0.75 0.15625 0  0.78125 0.15625 0  0.8125 0.15625 0  0.84375 0.15625 0  0.875 0.15625 0  0.90625 0.15625 0  0.9375 0.15625 0  0.96875 0.15625 0  1 0.15625 0  0 0.1875 0  0.03125 0.1875 0  0.0625 0.1875 0  0.09375 0.1875 0  0.125 0.1875 0  0.15625 0.1875 0  0.1875 0.1875 0  0.21875 0.1875 0  0.25 0.1875 0  0.28125 0.1875 0  0.3125 0.1875 0  0.34375 0.1875 0  0.375 0.1875 0  0.40625 0.1875 0  0.4375 0.1875 0  0.46875 0.1875 0  0.5 0.1875 0  0.53125 0.1875 0  0.5625 0.1875 0  0.59375 0.1875 0  0.625 0.1875 0  0.65625 0.1875 0  0.6875 0.1875 0  0.71875 0.1875 0  0.75 0.1875 0  0.78125 0.1875 0  0.8125 0.1875 0  0.84375 0.1875 0  0.875 0.1875 0  0.90625 0.1875 0  0.9375 0.1875 0  0.96875 0.1875 0  1 0.1875 0  0 0.21875 0  0.03125 0.21875 0  0.0625 0.21875 0  0.09375 0.21875 0  0.125 0.21875 0  0.15625 0.21875 0  0.1875 0.21875 0  0.21875 0.21875 0  0.25 0.21875 0  0.28125 0.21875 0  0.3125 0.21875 0  0.34375 0.21875 0  0.375 0.21875 0  0.40625 0.21875 0  0.4375 0.21875 0  0.46875 0.21875 0  0.5 0.21875 0  0.53125 0.21875 0  0.5625 0.21875 0  0.59375 0.21875 0  0.625 0.21875 0  0.65625 0.21875 0  0.6875 0.21875 0  0.71875 0.21875 0  0.75 0.21875 0  0.78125 0.21875 0  0.8125 0.21875 0  0.84375 0.21875 0  0.875 0.21875 0  0.90625 0.21875 0  0.9375 0.21875 0  0.96875 0.21875 0  1 0.21875 0  0 0.25 0  0.03125 0.25 0  0.0625 0.25 0  0.09375 0.25 0  0.125 0.25 0  0.15625 0.25 0  0.1875 0.25 0  0.21875 0.25 0  0.25 0.25 0  0.28125 0.25 0  0.3125 0.25 0  0.34375 0.25 0  0.375 0.25 0  0.40625 0.25 0  0.4375 0.25 0  0.46875 0.25 0  0.5 0.25 0  0.53125 0.25 0  0.5625 0.25 0  0.59375 0.25 0  0.625 0.25 0  0.65625 0.25 0  0.6875 0.25 0  0.71875 0.25 0  0.75 0.25 0  0.78125 0.25 0  0.8125 0.25 0  0.84375 0.25 0  0.875 0.25 0  0.90625 0.25 0  0.9375 0.25 0  0.96875 0.25 0  1 0.25 0  0 0.28125 0  0.03125 0.28125 0  0.0625 0.28125 0  0.09375 0.28125 0  0.125 0.28125 0  0.15625 0.28125 0  0.1875 0.28125 0  0.21875 0.28125 0  0.25 0.28125 0  0.28125 0.28125 0  0.3125 0.28125 0  0.34375 0.28125 0  0.375 0.28125 0  0.40625 0.28125 0  0.4375 0.28125 0  0.46875 0.28125 0  0.5 0.28125 0  0.53125 0.28125 0  0.5625 0.28125 0  0.59375 0.28125 0  0.625 0.28125 0  0.65625 0.28125 0  0.6875 0.28125 0  0.71875 0.28125 0  0.75 0.28125 0  0.78125 0.28125 0  0.8125 0.28125 0  0.84375 0.28125 0  0.875 0.28125 0  0.90625 0.28125 0  0.9375 0.28125 0  0.96875 0.28125 0  1 0.28125 0  0 0.3125 0  0.03125 0.3125 0  0.0625 0.3125 0  0.09375 0.3125 0  0.125 0.3125 0  0.15625 0.3125 0  0.1875 0.3125 0  0.21875 0.3125 0  0.25 0.3125 0  0.28125 0.3125 0  0.3125 0.3125 0  0.34375 0.3125 0  0.375 0.3125 0  0.40625 0.3125 0  0.4375 0.3125 0  0.46875 0.3125 0  0.5 0.3125 0  0.53125 0.3125 0  0.5625 0.3125 0  0.59375 0.3125 0  0.625 0.3125 0  0.65625 0.3125 0  0.6875 0.3125 0  0.71875 0.3125 0  0.75 0.3125 0  0.78125 0.3125 0  0.8125 0.3125 0  0.84375 0.3125 0  0.875 0.3125 0  0.90625 0.3125 0  0.9375 0.3125 0  0.96875 0.3125 0  1 0.3125 0  0 0.34375 0  0.03125 0.34375 0  0.0625 0.34375 0  0.09375 0.34375 0  0.125 0.34375 0  0.15625 0.34375 0  0.1875 0.34375 0  0.21875 0.34375 0  0.25 0.34375 0  0.28125 0.34375 0  0.3125 0.34375 0  0.34375 0.34375 0  0.375 0.34375 0  0.40625 0.34375 0  0.4375 0.34375 0  0.46875 0.34375 0  0.5 0.34375 0  0.53125 0.34375 0  0.5625 0.34375 0  0.59375 0.34375 0  0.625 0.34375 0  0.65625 0.34375 0  0.6875 0.34375 0  0.71875 0.34375 0  0.75 0.34375 0  0.78125 0.34375 0  0.8125 0.34375 0  0.84375 0.34375 0  0.875 0.34375 0  0.90625 0.34375 0  0.9375 0.34375 0  0.96875 0.34375 0  1 0.34375 0  0 0.375 0  0.03125 0.375 0  0.0625 0.375 0  0.09375 0.375 0  0.125 0.375 0  0.15625 0.375 0  0.1875 0.375 0  0.21875 0.375 0  0.25 0.375 0  0.28125 0.375 0  0.3125 0.375 0  0.34375 0.375 0  0.375 0.375 0  0.40625 0.375 0  0.4375 0.375 0  0.46875 0.375 0  0.5 0.375 0  0.53125 0.375 0  0.5625 0.375 0  0.59375 0.375 0  0.625 0.375 0  0.65625 0.375 0  0.6875 0.375 0  0.71875 0.375 0  0.75 0.375 0  0.78125 0.375 0  0.8125 0.375 0  0.84375 0.375 0  0.875 0.375 0  0.90625 0.375 0  0.9375 0.375 0  0.96875 0.375 0  1 0.375 0  0 0.40625 0  0.03125 0.40625 0  0.0625 0.40625 0  0.09375 0.40625 0  0.125 0.40625 0  0.15625 0.40625 0  0.1875 0.40625 0  0.21875 0.40625 0  0.25 0.40625 0  0.28125 0.40625 0  0.3125 0.40625 0  0.34375 0.40625 0  0.375 0.40625 0  0.40625 0.40625 0  0.4375 0.40625 0  0.46875 0.40625 0  0.5 0.40625 0  0.53125 0.40625 0  0.5625 0.40625 0  0.59375 0.40625 0  0.625 0.40625 0  0.65625 0.40625 0  0.6875 0.40625 0  0.71875 0.40625 0  0.75 0.40625 0  0.78125 0.40625 0  0.8125 0.40625 0  0.84375 0.40625 0  0.875 0.40625 0  0.90625 0.40625 0  0.9375 0.40625 0  0.96875 0.40625 0  1 0.40625 0  0 0.4375 0  0.03125 0.4375 0  0.0625 0.4375 0  0.09375 0.4375 0  0.125 0.4375 0  0.15625 0.4375 0  0.1875 0.4375 0  0.21875 0.4375 0  0.25 0.4375 0  0.28125 0.4375 0  0.3125 0.4375 0  0.34375 0.4375 0  0.375 0.4375 0  0.40625 0.4375 0  0.4375 0.4375 0  0.46875 0.4375 0  0.5 0.4375 0  0.53125 0.4375 0  0.5625 0.4375 0  0.59375 0.4375 0  0.625 0.4375 0  0.65625 0.4375 0  0.6875 0.4375 0  0.71875 0.4375 0  0.75 0.4375 0  0.78125 0.4375 0  0.8125 0.4375 0  0.84375 0.4375 0  0.875 0.4375 0  0.90625 0.4375 0  0.9375 0.4375 0  0.96875 0.4375 0  1 0.4375 0  0 0.46875 0  0.03125 0.46875 0  0.0625 0.46875 0  0.09375 0.46875 0  0.125 0.46875 0  0.15625 0.46875 0  0.1875 0.46875 0  0.21875 0.46875 0  0.25 0.46875 0  0.28125 0.46875 0  0.3125 0.46875 0  0.34375 0.46875 0  0.375 0.46875 0  0.40625 0.46875 0  0.4375 0.46875 0  0.46875 0.46875 0  0.5 0.46875 0  0.53125 0.46875 0  0.5625 0.46875 0  0.59375 0.46875 0  0.625 0.46875 0  0.65625 0.46875 0  0.6875 0.46875 0  0.71875 0.46875 0  0.75 0.46875 0  0.78125 0.46875 0  0.8125 0.46875 0  0.84375 0.46875 0  0.875 0.46875 0  0.90625 0.46875 0  0.9375 0.46875 0  0.96875 0.46875 0  1 0.46875 0  0 0.5 0  0.03125 0.5 0  0.0625 0.5 0  0.09375 0.5 0  0.125 0.5 0  0.15625 0.5 0  0.1875 0.5 0  0.21875 0.5 0  0.25 0.5 0  0.28125 0.5 0  0.3125 0.5 0  0.34375 0.5 0  0.375 0.5 0  0.40625 0.5 0  0.4375 0.5 0  0.46875 0.5 0  0.5 0.5 0  0.53125 0.5 0  0.5625 0.5 0  0.59375 0.5 0  0.625 0.5 0  0.65625 0.5 0  0.6875 0.5 0  0.71875 0.5 0  0.75 0.5 0  0.78125 0.5 0  0.8125 0.5 0  0.84375 0.5 0  0.875 0.5 0  0.90625 0.5 0  0.9375 0.5 0  0.96875 0.5 0  1 0.5 0  0 0.53125 0  0.03125 0.53125 0  0.0625 0.53125 0  0.09375 0.53125 0  0.125 0.53125 0  0.15625 0.53125 0  0.1875 0.53125 0  0.21875 0.53125 0  0.25 0.53125 0  0.28125 0.53125 0  0.3125 0.53125 0  0.34375 0.53125 0  0.375 0.53125 0  0.40625 0.53125 0  0.4375 0.53125 0  0.46875 0.53125 0  0.5 0.53125 0  0.53125 0.53125 0  0.5625 0.53125 0  0.59375 0.53125 0  0.625 0.53125 0  0.65625 0.53125 0  0.6875 0.53125 0  0.71875 0.53125 0  0.75 0.53125 0  0.78125 0.531
[...]
<PointData  Scalars="theta"> 
<DataArray  type="Float64"  Name="theta"  format="ascii">-9.0895739705075486e-04  1.3806377122600280e-15  1.1067723248292974e-03  -2.7807095574184542e-04  -1.4550606350429991e-03  -3.8436920427628574e-04  1.0249897463841323e-03  1.1026688667038942e-03  -3.7158573126054172e-04  -3.1522269795610370e-03  -6.4363809003593604e-04  6.1703537595064696e-15  3.0343403673947981e-03  1.9097320656406114e-03  0.0000000000000000e+00  -4.7744570101033551e-04  -1.5419045622344252e-03  -9.9089761898237504e-04  0.0000000000000000e+00  -1.1924144533742632e-03  1.1924144533966596e-03  0.0000000000000000e+00  7.0044580482409361e-04  2.2604388805857328e-03  3.5726439773966804e-03  0.0000000000000000e+00  1.7878371766015377e-03  6.2428886613135010e-04  3.9915574178844561e-04  1.3242288101468407e-04  -7.2782062670787332e-04  -5.9340111897551403e-04  -4.9609717570210318e-04  -2.2818483395939049e-04  -8.0789717888758879e-04  7.0083621103569554e-16  1.0377283902205242e-03  -2.5610711139069370e-04  -1.2932832561524132e-03  -3.3149586406063924e-04  8.8399345694372702e-04  9.8007130977504687e-04  -3.4223548451239768e-04  -2.9555811576821873e-03  -3.2672211999818266e-04  5.4843179792785681e-15  2.8462870116221927e-03  1.6470317449490373e-03  4.8587061177520277e-04  -4.3973394850047259e-04  -1.2723934602162585e-03  -5.0299722124431338e-04  -3.3021522710178211e-03  -1.1185145238085793e-03  1.1185145238295875e-03  3.3021522710384573e-03  3.5555872444277466e-04  1.8653344177851682e-03  3.2904534263113344e-03  3.1459992094779927e-03  1.5419045622376503e-03  5.8559854071203287e-04  3.5477658114009645e-04  6.7220205098441347e-05  -6.8241688952544487e-04  -5.4653045684466826e-04  0.0000000000000000e+00  -2.1338581551901776e-04  -6.9676386767704771e-04  0.0000000000000000e+00  9.7042610147286389e-04  -2.3247380461041288e-04  -1.1153808518052800e-03  -2.7355335722482118e-04  7.2947932124877682e-04  8.4525394350112913e-04  -3.1065433804340723e-04  -2.7638957625768265e-03  0.0000000000000000e+00  4.7299021542252465e-15  2.6687266860705460e-03  1.3591453533316090e-03  4.5575876275608194e-04  -3.9915574178772640e-04  -9.7999167602524158e-04  0.0000000000000000e+00  -3.0975012626768585e-03  -1.0487380739387169e-03  1.0487380739584145e-03  3.0975012626962158e-03  0.0000000000000000e+00  1.4366721140818836e-03  2.9868136919518622e-03  2.9510257928641384e-03  1.2723934602189197e-03  5.4906706405250352e-04  3.0597396462849689e-04  0.0000000000000000e+00  -6.3815846990625952e-04  -6.8293940204868853e-05  7.5027088070766504e-04  -1.9841996568828389e-04  -5.7497578660933564e-04  9.0882530551918811e-04  9.0236510467632178e-04  -2.0662676987877546e-04  -9.2042227271891804e-04  -2.1068955587332295e-04  5.6184166691240409e-04  6.9751112765001691e-04  -2.7611499078921721e-04  -2.5700494713886478e-03  -1.7646005679025209e-03  3.9031576375762727e-15  2.4956453521616431e-03  1.0468075909058677e-03  4.2732709934422379e-04  -3.5477658113945725e-04  -6.6732293588665401e-04  -4.6120486997257943e-03  -2.9042694029410825e-03  -9.8072174776121920e-04  9.8072174777963936e-04  2.9042694029592325e-03  4.6120486997430496e-03  9.7829836368009586e-04  2.6547320737145530e-03  2.7669315330959969e-03  9.7999167602729137e-04  5.1345710056404303e-04  2.5249245713727237e-04  -7.7590752402148272e-04  -2.3371246109643207e-04  -3.4667216363031080e-05  7.0377281530550266e-04  -1.8274747220218155e-04  -4.4284374480944410e-04  8.5250082381291086e-04  8.3109046668276843e-04  -1.7820345349464691e-04  -7.0890506269929087e-04  -1.4346853797401001e-04  3.8258470948255283e-04  5.3721990909621456e-04  -2.3813296287382655e-04  -2.3670503253118993e-03  -1.6552393828627482e-03  3.0061943216754499e-15  2.3206128483357672e-03  7.1282106977176658e-04  3.9961262983486269e-04  -3.0597396462794563e-04  -3.3874496819186976e-04  -4.3262168120807151e-03  -2.7159118521601902e-03  -9.1193866409171830e-04  9.1193866410884652e-04  2.7159118521771631e-03  4.3262168120969018e-03  4.9660161559808894e-04  2.2895504968523132e-03  2.5874810846546084e-03  6.6732293588804982e-04  4.7744570101119577e-04  1.9446854608293218e-04  3.3778536846190631e-05  -1.5914592899883914e-04  0.0000000000000000e+00  6.5986925614587176e-04  -1.6588371917938306e-04  -3.0155336535497959e-04  7.9931914424539714e-04  7.5439827389426966e-04  -1.4705508652620969e-04  -4.8272716930017941e-04  -7.2827176647191909e-05  1.9420678995870098e-04  3.6581858369337154e-04  -1.9650945463413916e-04  -2.1486213008358053e-03  -1.5519803501345235e-03  2.0470606737424765e-15  2.1373158216320921e-03  3.6184062860885214e-04  3.7158573126137151e-04  -2.5249245713681738e-04  0.0000000000000000e+00  -4.0563338162958812e-03  -2.5254309205477647e-03  -8.3990784439509820e-04  8.3990784441087356e-04  2.5254309205635468e-03  4.0563338163110583e-03  0.0000000000000000e+00  1.8893575843683481e-03  2.4060076663834952e-03  3.3874496819257828e-04  4.3973394850126488e-04  7.7214412484621366e-05  2.3001412082988818e-05  -8.0785298627490920e-05  3.2196208214748561e-04  6.1707317228485705e-04  -1.4744034119007368e-04  -1.5307384125738205e-04  7.4747898225840123e-04  6.7052233604609156e-04  -1.1326116112571300e-04  -2.4504088023390668e-04  0.0000000000000000e+00  0.0000000000000000e+00  1.8569600688541878e-04  -1.5135069129401633e-04  -1.9097320656339847e-03  -1.4513260453667294e-03  1.0391243362441589e-15  1.9400864662085209e-03  0.0000000000000000e+00  3.4223548451316188e-04  -1.9446854608258179e-04  -4.6714460995465404e-03  -3.7932586683728010e-03  -2.3259560364825905e-03  -7.6240199285522176e-04  7.6240199286954126e-04  2.3259560364971258e-03  3.7932586683869932e-03  4.6714460995590148e-03  1.4551746481009462e-03  2.2159656040935194e-03  0.0000000000000000e+00  0.0000000000000000e+00  3.9195406443364946e-05  1.1675925081261637e-05  0.0000000000000000e+00  3.0200847027521128e-04  5.7379464222639270e-04  -1.2715863486572875e-04  0.0000000000000000e+00  6.9505441892508046e-04  5.7828613397389970e-04  -7.7124910765461870e-05  0.0000000000000000e+00  6.7636204720153653e-04  2.2757486838033817e-03  0.0000000000000000e+00  -1.0306188321154289e-04  -1.6470317449433221e-03  -1.3495370506410912e-03  0.0000000000000000e+00  1.7243826695656833e-03  2.3825914429581531e-03  3.1065433804410096e-04  -1.3242288101444547e-04  -4.3819330558648867e-03  -3.5272178377678378e-03  -2.1113191516684794e-03  -6.7763618097451469e-04  6.7763618098724224e-04  2.1113191516816733e-03  3.5272178377810347e-03  4.3819330558765874e-03  9.9089761898502092e-04  2.0114785258093068e-03  -3.7954941300417716e-04  3.7905780589180857e-15  0.0000000000000000e+00  0.0000000000000000e+00  -7.9063493009868006e-04  2.8316823312328092e-04  5.2847262656401139e-04  -1.0493244483219940e-04  -9.0882530550706999e-04  6.4015452104785198e-04  4.7720689919734721e-04  -3.9149973781936164e-05  -1.8036412789848933e-03  6.3444448447185430e-04  2.1347090754974245e-03  3.6359443869106553e-04  -5.2316041413895152e-05  -1.3591453533268927e-03  -1.2429418773073065e-03  1.7646005679209371e-03  1.4871787767054864e-03  2.2349302507274141e-03  2.7611499078983380e-04  -6.7220205098320214e-05  -4.1085743057571629e-03  -3.2486153372849715e-03  -1.8765772652258375e-03  -5.8442140741699772e-04  5.8442140742797450e-04  1.8765772652375647e-03  3.2486153372971263e-03  4.1085743057681333e-03  5.0299722124565660e-04  3.8699351888796913e-05  -3.5493358440322339e-04  3.5556568444237565e-15  4.3154741597243120e-04  -1.7440497413615769e-04  -7.4163530125224638e-04  2.6480324439460409e-04  4.7970570384660532e-04  -8.0818493410879047e-05  -8.5250082380154387e-04  5.8108170537883206e-04  3.6754259085529454e-04  0.0000000000000000e+00  -1.6918605444411563e-03  5.9486584438837756e-04  2.0015392170623291e-03  3.4106065999213312e-04  0.0000000000000000e+00  -1.0468075909022354e-03  -1.1282444503715498e-03  1.6552393828800230e-03  1.2272332516548984e-03  2.0955082805311567e-03  2.3813296287435829e-04  0.0000000000000000e+00  -3.8421110800488196e-03  -2.9488363797219408e-03  -1.6184376768265730e-03  -4.8226978181462401e-04  4.8226978182368209e-04  1.6184376768366871e-03  2.9488363797329741e-03  3.8421110800590792e-03  2.3954837570648689e-05  3.4396658542172908e-05  -3.3004025814748015e-04  3.3338438001777369e-15  4.0480224900940891e-04  -1.6359621945518632e-04  -6.9536976127218271e-04  2.4623122459721709e-04  4.2637079151501431e-04  -5.5033155501511515e-05  -7.9931914423473922e-04  5.1647554880125332e-04  2.5027722866762902e-04  -1.7245997600491127e-03  -1.5863169686062843e-03  5.5628558272989147e-04  1.8717285926292168e-03  3.1978422456106661e-04  -2.3825914429518929e-03  -7.1282106976929308e-04  -1.0028033343567762e-03  1.5519803501507208e-03  9.4520948807673161e-04  1.9596032549979814e-03  1.9650945463457796e-04  -3.1459992094714116e-03  -3.5726439773871403e-03  -2.6209771766073421e-03  -1.3355492721141839e-03  -3.7144200009996391e-04  3.7144200010694043e-04  1.3355492721225301e-03  2.6209771766171485e-03  -9.2882599658818419e-05  1.2159900783462764e-05  2.9665097821001111e-05  -3.0397154183647163e-04  3.1176260304861143e-15  3.7954941300774917e-04  -1.5339057333908150e-04  -6.5027127798833733e-04  2.2678228834632875e-04  3.6771976623260533e-04  -2.7935806649727008e-05  -7.4747898224843449e-04  4.4542982739324350e-04  1.2704516405017638e-04  -1.6177176265459701e-03  -1.4834357487489712e-03  5.1727040042319375e-04  1.7404545949970584e-03  2.9904449109980713e-04  -2.2349302507215412e-03  -3.6184062860759652e-04  -8.6485897961414580e-04  1.4513260453818766e-03  6.4363809003928666e-04  1.8221661532356885e-03  1.5135069129435433e-04  -2.9510257928579654e-03  -3.2904534263025476e-03  -2.2604388805772752e-03  -1.0286339960997753e-03  -2.5293252185943504e-04  2.5293252186418564e-04  1.0286339961062035e-03  -1.8854311508502491e-05  -8.6368263009960135e-05  0.0000000000000000e+00  2.4479904521080656e-05  -2.7592135353171474e-04  2.8989708078455831e-15  3.5493358440656371e-04  -1.4344236651027707e-04  -6.0466439323856105e-04  2.0585504675698157e-04  3.0344564586318613e-04  0.0000000000000000e+00  -6.9505441891581292e-04  3.6757268461486760e-04  0.0000000000000000e+00  -1.5167993188534403e-03  -1.3793947346107062e-03  4.7641303532354467e-04  1.6029822231602411e-03  2.7807095574263114e-04  -2.0955082805256507e-03  0.0000000000000000e+00  -7.1368937911154510e-04  1.3495370506551756e-03  3.2672211999988350e-04  1.6782396735181852e-03  1.0306188321177305e-04  -2.7669315330902089e-03  -2.9868136919438868e-03  -1.8653344177781894e-03  -7.0044580481971636e-04  -1.2839303800958604e-04  1.2839303801199752e-04  2.1989562308935321e-05  -1.2838797326326817e-05  -7.9546338438336736e-05  2.1394866468734566e-04  1.8854311508701334e-05  -2.4524370871110258e-04  2.6699913251369861e-15  3.3004025815058617e-04  -1.3338201216415337e-04  -5.5690408478655255e-04  1.8296755389675496e-04  2.3371246109790865e-04  -1.1798964507151696e-03  -6.4015452103931639e-04  2.8310281569318837e-04  2.5944599592260190e-04  -1.4184266939047912e-03  -1.2704412080945654e-03  4.3245011935144552e-04  1.4550606350498252e-03  2.5610711139141740e-04  -1.9596032549928323e-03  -3.0343403673790013e-03  -5.4968032504510355e-04  1.2429418773202783e-03  0.0000000000000000e+00  1.5233734035433998e-03  5.2316041414011982e-05  -2.5874810846491961e-03  -2.6547320737074645e-03  -1.4366721140765084e-03  -3.5555872444055264e-04  0.0000000000000000e+00  0.0000000000000000e+00  2.0252684314558268e-05  -6.5172014298443631e-06  -7.2205882293433413e-05  2.0068918833134709e-04  1.2838797326462222e-05  -2.1150829520199003e-04  2.4236072097369643e-15  3.0397154183933229e-04  -1.2284663731135272e-04  -5.0551353568589069e-04  1.5779876925433602e-04  1.5914592899984460e-04  -1.1067723248242836e-03  -5.8108170537108403e-04  1.9277817021099959e-04  2.4336682079140179e-04  -1.3189451006918088e-03  -1.1532061705582339e-03  3.8436920428529746e-04  1.2932832561584804e-03  2.3247380461106980e-04  -1.8221661532309005e-03  -2.8462870116073751e-03  -3.7430347347029990e-04  1.1282444503833249e-03  3.3604937001257842e-03  1.3540008355819285e-03  0.0000000000000000e+00  -2.4060076663784628e-03  -2.2895504968461996e-03  -9.7829836367643560e-04  0.0000000000000000e+00  -3.3443536594253153e-05  8.2689311899433439e-05  1.8383786965589418e-05  0.0000000000000000e+00  -6.4177846831138991e-05  1.8816956628715258e-04  6.5172014299130973e-06  -1.7453854031439445e-04  2.1541443348513513e-15  2.7592135353431146e-04  -1.1151047311528663e-04  -4.4930924232009612e-04  1.3021695826519346e-04  8.0785298628001322e-05  -1.0377283902158233e-03  -5.1647554879436690e-04  9.7857621287129973e-05  2.2818483396022749e-04  -1.2147662776211849e-03  -1.0249897463761256e-03  3.3149586406841134e-04  1.1153808518105126e-03  2.0662676987935933e-04  -1.6782396735137756e-03  -2.6687266860566531e-03  -1.9000308755510718e-04  1.0028033343672423e-03  3.1522269795719753e-03  1.1677461980211799e-03  -6.2428886613022534e-04  -2.2159656040888847e-03  -1.8893575843633029e-03  -4.9660161559623094e-04  -1.8383786965264252e-05  -2.5758060304430709e-05  7.7564638755870806e-05  1.6339830309935628e-05  -2.1394866468403773e-04  -5.5349623622675725e-05  1.7596575399568320e-04  0.0000000000000000e+00  -1.3442879266656340e-04  1.8578229724137567e-15  2.4524370871341057e-04  -9.9112452287166902e-05  -3.8750283283951617e-04  1.0029251105670314e-04  0.0000000000000000e+00  -9.7042610146846767e-04  -4.4542982738730429e-04  0.0000000000000000e+00  2.1338581551980050e-04  -1.1026688667001524e-03  -8.8399345693682162e-04  2.7355335723123477e-04  9.2042227272323587e-04  1.7820345349515049e-04  -1.5233734035393970e-03  -2.4956453521486513e-03  0.0000000000000000e+00  8.6485897962317211e-04  2.9555811576924425e-03  9.6363462560962899e-04  -5.8559854071097784e-04  -2.0114785258050993e-03  -1.4551746480970604e-03  7.9521478443146270e-06  -1.6339830309646610e-05  -1.7539888190494639e-05  7.2725912916715536e-05  1.4092143977546324e-05  -2.0068918832824418e-04  -4.5675005345899327e-05  1.6362436643322571e-04  -1.0843689065348570e-04  -9.1538957712166127e-05  1.5330921629242832e-15  2.1150829520398057e-04  -8.5478669062380799e-05  -3.1977080968342841e-04  6.8293940206977843e-05  1.7440497413701925e-04  -9.0236510467223390e-04  -3.6757268460996647e-04  1.4216305150160286e-03  1.9841996568901169e-04  -9.8007130977172119e-04  -7.2947932124307847e-04  2.1068955587826265e-04  7.0890506270261644e-04  1.4705508652662527e-04  -1.3540008355783708e-03  -2.3206128483236866e-03  9.6505768272105394e-15  7.1368937911899357e-04  2.7638957625864169e-03  7.4218702103878481e-04  -5.4906706405151418e-04  -1.7878371765977985e-03  1.5444317506141407e-05  7.3240357243562130e-06  -1.4092143977297063e-05  -8.9035586035772661e-06  6.8009244820627454e-05  1.1628963475840442e-05  -1.8816956628424323e-04  -3.5178682098682001e-05  1.5070025464741376e-04  -1.0171651037049095e-04  -4.6466799882016117e-05  1.1807806352525397e-15  1.7453854031603707e-04  -7.0537763598903813e-05  -2.4628602827960941e-04  3.4667216364101642e-05  1.6359621945599446e-04  -8.3109046667900342e-04  -2.8310281568941350e-04  1.3335249116070628e-03  1.8274747220285188e-04  -8.4525394349826066e-04  -5.6184166690801524e-04  1.4346853797737370e-04  4.8272716930244399e-04  1.1326116112603307e-04  -1.1677461980181113e-03  -2.1373158216209651e-03  9.0524819737131237e-15  5.4968032505084039e-04  2.5700494713975655e-03  5.0539043746307790e-04  -5.1345710056311788e-04  -1.5444317504795902e-05  1.4361127716919047e-05  6.6481810704048261e-06  -1.1628963475634748e-05  0.0000000000000000e+00  6.3239405069979101e-05  8.9565749616382470e-06  -1.7596575399296256e-04  -2.3954837569570437e-05  1.3679378664420552e-04  -9.5371114905587221e-05  0.0000000000000000e+00  8.0404968677972491e-16  1.3442879266782856e-04  -5.4327865816453631e-05  -1.6770786883212185e-04  0.0000000000000000e+00  1.5339057333983925e-04  -7.5439827389085215e-04  -1.9277817020842911e-04  1.2503354382794130e-03  1.6588371917999152e-04  -6.9751112764764988e-04  -3.8258470947956423e-04  7.2827176648899392e-05  2.4504088023505626e-04  7.7124910765679808e-05  -9.6363462560709672e-04  -1.9400864661984212e-03  8.4877597093246039e-15  3.7430347347420644e-04  2.3670503253201127e-03  2.5654515745879265e-04  -7.9521478440318111e-06  -1.4361127715667908e-05  1.3226792874073200e-05  5.9090192223981836e-06  -8.9565749614798247e-06  1.6948654993983248e-15  5.8244347437617271e-05  6.0989578229186742e-06  -1.6362436643069589e-04  -1.2159900782915423e-05  1.2158470207491289e-04  -8.9185783200247529e-05  -3.6401638182748889e-04  4.0814989404042137e-16  9.1538957713027620e-05  -3.6994427405889752e-05  -8.5131491273533419e-05  7.9063493010685082e-04  1.4344236651098568e-04  -6.7052233604305395e-04  -9.7857621285825163e-05  1.1692444346106869e-03  1.4744034119061448e-04  -5.3721990909439148e-04  -1.9420678995718391e-04  0.0000000000000000e+00  0.0000000000000000e+00  3.9149973782046800e-05  -7.4218702103683444e-04  -1.7243826695567063e-03  7.9372826671996122e-15  1.9000308755709019e-04  2.1486213008432608e-03  1.3395141634338374e-06  -7.3240357240957343e-06  -1.3226792872920886e-05  1.2006237724258008e-05  5.0961820330221092e-06  -6.0989578228107978e-06  1.5898261477916635e-15  5.2869617607836799e-05  3.0959392561310881e-06  -1.5070025464508375e-04  0.0000000000000000e+00  1.0485966467258237e-04  -8.2930723391493104e-05  -3.4145645318717146e-04  0.0000000000000000e+00  4.6466799882453430e-05  -1.8779028055185990e-05  0.0000000000000000e+00  7.4163530125991083e-04  1.3338201216481232e-04  -5.7828613397127994e-04  0.0000000000000000e+00  1.0872392807946155e-03  1.2715863486619517e-04  -3.6581858369213018e-04  0.0000000000000000e+00  1.8036412789989831e-03  1.7245997600549648e-03  0.0000000000000000e+00  -5.0539043746174986e-04  -1.4871787766977443e-03  7.3806000209212366e-15  0.0000000000000000e+00  1.5156021098564734e-16  1.1905835380508354e-06  -6.6481810701683837e-06  -1.2006237723212029e-05  1.0671353374706257e-05  4.2054150754260967e-06  -3.0959392560763278e-06  1.4906477981664365e-15  4.6991437720652474e-05  0.0000000000000000e+00  -1.3679378664209051e-04  1.1293167971238021e-04  8.6531134830106676e-05  -7.6380317954004024e-05  -3.2015532693319251e-04  3.6401638183417403e-04  0.0000000000000000e+00  0.0000000000000000e+00  -3.2196208213754299e-04  6.9536976127936901e-04  1.2284663731195960e-04  -4.7720689919518531e-04  6.5088204192553270e-15  1.0013620834723586e-03  1.0493244483258429e-04  -1.8569600688478864e-04  -6.7636204718567877e-04  1.6918605444543730e-03  1.6177176265514592e-03  -4.8587061177411770e-04  -2.5654515745811854e-04  -1.2272332516485094e-03  6.7976324483275821e-15  0.0000000000000000e+00  1.1673098756521407e-16  1.0268083766639173e-06  -5.9090192221880296e-06  -1.0671353373776572e-05  9.2034155397681034e-06  3.2389916303469360e-06  0.0000000000000000e+00  1.3939712405250461e-15  4.0527355150602225e-05  -6.0526686656620929e-05  -1.2158470207303304e-04  1.0593273471228986e-04  6.6645887849902698e-05  -6.9332018996664098e-05  -2.9939152547953817e-04  3.4145645319344226e-04  1.0843689065424224e-04  -7.5027088070292480e-04  -3.0200847026588492e-04  6.5027127799505743e-04  1.1151047311583750e-04  -3.6754259085362948e-04  6.1054360345914797e-15  9.0895739705683192e-04  8.0818493411175481e-05  0.0000000000000000e+00  -6.3444448445697927e-04  1.5863169686186763e-03  1.5167993188585870e-03  -4.5575876275506414e-04  0.0000000000000000e+00  -9.4520948807181096e-04  -1.6022449679442703e-06  3.7473338150223409e-16  7.9487680596340865e-17  8.4733147262314493e-07  -5.0961820328408636e-06  -9.2034155389663054e-06  7.5947409659932136e-06  2.2055834319349311e-06  -8.2689311896939788e-05  1.2962048346216493e-15  3.3443536595261698e-05  -5.6775543026894560e-05  -1.0485966467096113e-04  9.9324317927444855e-05  4.5382354394226740e-05  -6.1623507037544833e-05  -2.7839365080814619e-04  3.2015532693907209e-04  1.0171651037120060e-04  -7.0377281530105624e-04  -2.8316823311453634e-04  6.0466439324480996e-04  9.9112452287656542e-05  -2.502