<?xml version="1.0"?>
<VTKFile type="UnstructuredGrid"  version="0.1"  >
<UnstructuredGrid>
<Piece  NumberOfPoints="1089" NumberOfCells="2048">
<Points>
<DataArray  type="Float64"  NumberOfComponents="3"  format="ascii">0 0 0  0.03125 0 0  0.0625 0 0  0.09375 0 0  0.125 0 0  0.15625 0 0  0.1875 0 0  0.21875 0 0  0.25 0 0  0.28125 0 0  0.3125 0 0  0.34375 0 0  0.375 0 0  0.40625 0 0  0.4375 0 0  0.46875 0 0  0.5 0 0  0.53125 0 0  0.5625 0 0  0.59375 0 0  0.625 0 0  0.65625 0 0  0.6875 0 0  0.71875 0 0  0.75 0 0  0.78125 0 0  0.8125 0 0  0.84375 0 0  0.875 0 0  0.90625 0 0  0.9375 0 0  0.96875 0 0  1 0 0  0 0.03125 0  0.03125 0.03125 0  0.0625 0.03125 0  0.09375 0.03125 0  0.125 0.03125 0  0.15625 0.03125 0  0.1875 0.03125 0  0.21875 0.03125 0  0.25 0.03125 0  0.28125 0.03125 0  0.3125 0.03125 0  0.34375 0.03125 0  0.375 0.03125 0  0.40625 0.03125 0  0.4375 0.03125 0  0.46875 0.03125 0  0.5 0.03125 0  0.53125 0.03125 0  0.5625 0.03125 0  0.59375 0.03125 0  0.625 0.03125 0  0.65625 0.03125 0  0.6875 0.03125 0  0.71875 0.03125 0  0.75 0.03125 0  0.78125 0.03125 0  0.8125 0.03125 0  0.84375 0.03125 0  0.875 0.03125 0  0.90625 0.03125 0  0.9375 0.03125 0  0.96875 0.03125 0  1 0.03125 0  0 0.0625 0  0.03125 0.0625 0  0.0625 0.0625 0  0.09375 0.0625 0  0.125 0.0625 0  0.15625 0.0625 0  0.1875 0.0625 0  0.21875 0.0625 0  0.25 0.0625 0  0.28125 0.0625 0  0.3125 0.0625 0  0.34375 0.0625 0  0.375 0.0625 0  0.40625 0.0625 0  0.4375 0.0625 0  0.46875 0.0625 0  0.5 0.0625 0  0.53125 0.0625 0  0.5625 0.0625 0  0.59375 0.0625 0  0.625 0.0625 0  0.65625 0.0625 0  0.6875 0.0625 0  0.71875 0.0625 0  0.75 0.0625 0  0.78125 0.0625 0  0.8125 0.0625 0  0.84375 0.0625 0  0.875 0.0625 0  0.90625 0.0625 0  0.9375 0.0625 0  0.96875 0.0625 0  1 0.0625 0  0 0.09375 0  0.03125 0.09375 0  0.0625 0.09375 0  0.09375 0.09375 0  0.125 0.09375 0  0.15625 0.09375 0  0.1875 0.09375 0  0.21875 0.09375 0  0.25 0.09375 0  0.28125 0.09375 0  0.3125 0.09375 0  0.34375 0.09375 0  0.375 0.09375 0  0.40625 0.09375 0  0.4375 0.09375 0  0.46875 0.09375 0  0.5 0.09375 0  0.53125 0.09375 0  0.5625 0.09375 0  0.59375 0.09375 0  0.625 0.09375 0  0.65625 0.09375 0  0.6875 0.09375 0  0.71875 0.09375 0  0.75 0.09375 0  0.78125 0.09375 0  0.8125 0.09375 0  0.84375 0.09375 0  0.875 0.09375 0  0.90625 0.09375 0  0.9375 0.09375 0  0.96875 0.09375 0  1 0.09375 0  0 0.125 0  0.03125 0.125 0  0.0625 0.125 0  0.09375 0.125 0  0.125 0.125 0  0.15625 0.125 0  0.1875 0.125 0  0.21875 0.125 0  0.25 0.125 0  0.28125 0.125 0  0.3125 0.125 0  0.34375 0.125 0  0.375 0.125 0  0.40625 0.125 0  0.4375 0.125 0  0.46875 0.125 0  0.5 0.125 0  0.53125 0.125 0  0.5625 0.125 0  0.59375 0.125 0  0.625 0.125 0  0.65625 0.125 0  0.6875 0.125 0  0.71875 0.125 0  0.75 0.125 0  0.78125 0.125 0  0.8125 0.125 0  0.84375 0.125 0  0.875 0.125 0  0.90625 0.125 0  0.9375 0.125 0  0.96875 0.125 0  1 0.125 0  0 0.15625 0  0.03125 0.15625 0  0.0625 0.15625 0  0.09375 0.15625 0  0.125 0.15625 0  0.15625 0.15625 0  0.1875 0.15625 0  0.21875 0.15625 0  0.25 0.15625 0  0.28125 0.15625 0  0.3125 0.15625 0  0.34375 0.15625 0  0.375 0.15625 0  0.40625 0.15625 0  0.4375 0.15625 0  0.46875 0.15625 0  0.5 0.15625 0  0.53125 0.15625 0  0.5625 0.15625 0  0.59375 0.15625 0  0.625 0.15625 0  0.65625 0.15625 0  0.6875 0.15625 0  0.71875 0.15625 0  0.75 0.15625 0  0.78125 0.15625 0  0.8125 0.15625 0  0.84375 0.15625 0  0.875 0.15625 0  0.90625 0.15625 0  0.9375 0.15625 0  0.96875 0.15625 0  1 0.15625 0  0 0.1875 0  0.03125 0.1875 0  0.0625 0.1875 0  0.09375 0.1875 0  0.125 0.1875 0  0.15625 0.1875 0  0.1875 0.1875 0  0.21875 0.1875 0  0.25 0.1875 0  0.28125 0.1875 0  0.3125 0.1875 0  0.34375 0.1875 0  0.375 0.1875 0  0.40625 0.1875 0  0.4375 0.1875 0  0.46875 0.1875 0  0.5 0.1875 0  0.53125 0.1875 0  0.5625 0.1875 0  0.59375 0.1875 0  0.625 0.1875 0  0.65625 0.1875 0  0.6875 0.1875 0  0.71875 0.1875 0  0.75 0.1875 0  0.78125 0.1875 0  0.8125 0.1875 0  0.84375 0.1875 0  0.875 0.1875 0  0.90625 0.1875 0  0.9375 0.1875 0  0.96875 0.1875 0  1 0.1875 0  0 0.21875 0  0.03125 0.21875 0  0.0625 0.21875 0  0.09375 0.21875 0  0.125 0.21875 0  0.15625 0.21875 0  0.1875 0.21875 0  0.21875 0.21875 0  0.25 0.21875 0  0.28125 0.21875 0  0.3125 0.21875 0  0.34375 0.21875 0  0.375 0.21875 0  0.40625 0.21875 0  0.4375 0.21875 0  0.46875 0.21875 0  0.5 0.21875 0  0.53125 0.21875 0  0.5625 0.21875 0  0.59375 0.21875 0  0.625 0.21875 0  0.65625 0.21875 0  0.6875 0.21875 0  0.71875 0.21875 0  0.75 0.21875 0  0.78125 0.21875 0  0.8125 0.21875 0  0.84375 0.21875 0  0.875 0.21875 0  0.90625 0.21875 0  0.9375 0.21875 0  0.96875 0.21875 0  1 0.21875 0  0 0.25 0  0.03125 0.25 0  0.0625 0.25 0  0.09375 0.25 0  0.125 0.25 0  0.15625 0.25 0  0.1875 0.25 0  0.21875 0.25 0  0.25 0.25 0  0.28125 0.25 0  0.3125 0.25 0  0.34375 0.25 0  0.375 0.25 0  0.40625 0.25 0  0.4375 0.25 0  0.46875 0.25 0  0.5 0.25 0  0.53125 0.25 0  0.5625 0.25 0  0.59375 0.25 0  0.625 0.25 0  0.65625 0.25 0  0.6875 0.25 0  0.71875 0.25 0  0.75 0.25 0  0.78125 0.25 0  0.8125 0.25 0  0.84375 0.25 0  0.875 0.25 0  0.90625 0.25 0  0.9375 0.25 0  0.96875 0.25 0  1 0.25 0  0 0.28125 0  0.03125 0.28125 0  0.0625 0.28125 0  0.09375 0.28125 0  0.125 0.28125 0  0.15625 0.28125 0  0.1875 0.28125 0  0.21875 0.28125 0  0.25 0.28125 0  0.28125 0.28125 0  0.3125 0.28125 0  0.34375 0.28125 0  0.375 0.28125 0  0.40625 0.28125 0  0.4375 0.28125 0  0.46875 0.28125 0  0.5 0.28125 0  0.53125 0.28125 0  0.5625 0.28125 0  0.59375 0.28125 0  0.625 0.28125 0  0.65625 0.28125 0  0.6875 0.28125 0  0.71875 0.28125 0  0.75 0.28125 0  0.78125 0.28125 0  0.8125 0.28125 0  0.84375 0.28125 0  0.875 0.28125 0  0.90625 0.28125 0  0.9375 0.28125 0  0.96875 0.28125 0  1 0.28125 0  0 0.3125 0  0.03125 0.3125 0  0.0625 0.3125 0  0.09375 0.3125 0  0.125 0.3125 0  0.15625 0.3125 0  0.1875 0.3125 0  0.21875 0.3125 0  0.25 0.3125 0  0.28125 0.3125 0  0.3125 0.3125 0  0.34375 0.3125 0  0.375 0.3125 0  0.40625 0.3125 0  0.4375 0.3125 0  0.46875 0.3125 0  0.5 0.3125 0  0.53125 0.3125 0  0.5625 0.3125 0  0.59375 0.3125 0  0.625 0.3125 0  0.65625 0.3125 0  0.6875 0.3125 0  0.71875 0.3125 0  0.75 0.3125 0  0.78125 0.3125 0  0.8125 0.3125 0  0.84375 0.3125 0  0.875 0.3125 0  0.90625 0.3125 0  0.9375 0.3125 0  0.96875 0.3125 0  1 0.3125 0  0 0.34375 0  0.03125 0.34375 0  0.0625 0.34375 0  0.09375 0.34375 0  0.125 0.34375 0  0.15625 0.34375 0  0.1875 0.34375 0  0.21875 0.34375 0  0.25 0.34375 0  0.28125 0.34375 0  0.3125 0.34375 0  0.34375 0.34375 0  0.375 0.34375 0  0.40625 0.34375 0  0.4375 0.34375 0  0.46875 0.34375 0  0.5 0.34375 0  0.53125 0.34375 0  0.5625 0.34375 0  0.59375 0.34375 0  0.625 0.34375 0  0.65625 0.34375 0  0.6875 0.34375 0  0.71875 0.34375 0  0.75 0.34375 0  0.78125 0.34375 0  0.8125 0.34375 0  0.84375 0.34375 0  0.875 0.34375 0  0.90625 0.34375 0  0.9375 0.34375 0  0.96875 0.34375 0  1 0.34375 0  0 0.375 0  0.03125 0.375 0  0.0625 0.375 0  0.09375 0.375 0  0.125 0.375 0  0.15625 0.375 0  0.1875 0.375 0  0.21875 0.375 0  0.25 0.375 0  0.28125 0.375 0  0.3125 0.375 0  0.34375 0.375 0  0.375 0.375 0  0.40625 0.375 0  0.4375 0.375 0  0.46875 0.375 0  0.5 0.375 0  0.53125 0.375 0  0.5625 0.375 0  0.59375 0.375 0  0.625 0.375 0  0.65625 0.375 0  0.6875 0.375 0  0.71875 0.375 0  0.75 0.375 0  0.78125 0.375 0  0.8125 0.375 0  0.84375 0.375 0  0.875 0.375 0  0.90625 0.375 0  0.9375 0.375 0  0.96875 0.375 0  1 0.375 0  0 0.40625 0  0.03125 0.40625 0  0.0625 0.40625 0  0.09375 0.40625 0  0.125 0.40625 0  0.15625 0.40625 0  0.1875 0.40625 0  0.21875 0.40625 0  0.25 0.40625 0  0.28125 0.40625 0  0.3125 0.40625 0  0.34375 0.40625 0  0.375 0.40625 0  0.40625 0.40625 0  0.4375 0.40625 0  0.46875 0.40625 0  0.5 0.40625 0  0.53125 0.40625 0  0.5625 0.40625 0  0.59375 0.40625 0  0.625 0.40625 0  0.65625 0.40625 0  0.6875 0.40625 0  0.71875 0.40625 0  0.75 0.40625 0  0.78125 0.40625 0  0.8125 0.40625 0  0.84375 0.40625 0  0.875 0.40625 0  0.90625 0.40625 0  0.9375 0.40625 0  0.96875 0.40625 0  1 0.40625 0  0 0.4375 0  0.03125 0.4375 0  0.0625 0.4375 0  0.09375 0.4375 0  0.125 0.4375 0  0.15625 0.4375 0  0.1875 0.4375 0  0.21875 0.4375 0  0.25 0.4375 0  0.28125 0.4375 0  0.3125 0.4375 0  0.34375 0.4375 0  0.375 0.4375 0  0.40625 0.4375 0  0.4375 0.4375 0  0.46875 0.4375 0  0.5 0.4375 0  0.53125 0.4375 0  0.5625 0.4375 0  0.59375 0.4375 0  0.625 0.4375 0  0.65625 0.4375 0  0.6875 0.4375 0  0.71875 0.4375 0  0.75 0.4375 0  0.78125 0.4375 0  0.8125 0.4375 0  0.84375 0.4375 0  0.875 0.4375 0  0.90625 0.4375 0  0.9375 0.4375 0  0.96875 0.4375 0  1 0.4375 0  0 0.46875 0  0.03125 0.46875 0  0.0625 0.46875 0  0.09375 0.46875 0  0.125 0.46875 0  0.15625 0.46875 0  0.1875 0.46875 0  0.21875 0.46875 0  0.25 0.46875 0  0.28125 0.46875 0  0.3125 0.46875 0  0.34375 0.46875 0  0.375 0.46875 0  0.40625 0.46875 0  0.4375 0.46875 0  0.46875 0.46875 0  0.5 0.46875 0  0.53125 0.46875 0  0.5625 0.46875 0  0.59375 0.46875 0  0.625 0.46875 0  0.65625 0.46875 0  0.6875 0.46875 0  0.71875 0.46875 0  0.75 0.46875 0  0.78125 0.46875 0  0.8125 0.46875 0  0.84375 0.46875 0  0.875 0.46875 0  0.90625 0.46875 0  0.9375 0.46875 0  0.96875 0.46875 0  1 0.46875 0  0 0.5 0  0.03125 0.5 0  0.0625 0.5 0  0.09375 0.5 0  0.125 0.5 0  0.15625 0.5 0  0.1875 0.5 0  0.21875 0.5 0  0.25 0.5 0  0.28125 0.5 0  0.3125 0.5 0  0.34375 0.5 0  0.375 0.5 0  0.40625 0.5 0  0.4375 0.5 0  0.46875 0.5 0  0.5 0.5 0  0.53125 0.5 0  0.5625 0.5 0  0.59375 0.5 0  0.625 0.5 0  0.65625 0.5 0  0.6875 0.5 0  0.71875 0.5 0  0.75 0.5 0  0.78125 0.5 0  0.8125 0.5 0  0.84375 0.5 0  0.875 0.5 0  0.90625 0.5 0  0.9375 0.5 0  0.96875 0.5 0  1 0.5 0  0 0.53125 0  0.03125 0.53125 0  0.0625 0.53125 0  0.09375 0.53125 0  0.125 0.53125 0  0.15625 0.53125 0  0.1875 0.53125 0  0.21875 0.53125 0  0.25 0.53125 0  0.28125 0.53125 0  0.3125 0.53125 0  0.34375 0.53125 0  0.375 0.53125 0  0.40625 0.53125 0  0.4375 0.53125 0  0.46875 0.53125 0  0.5 0.53125 0  0.53125 0.53125 0  0.5625 0.53125 0  0.59375 0.53125 0  0.625 0.53125 0  0.65625 0.53125 0  0.6875 0.53125 0  0.71875 0.53125 0  0.75 0.53125 0  0.78125 0.531
[...]
<PointData  Scalars="theta"> 
<DataArray  type="Float64"  Name="theta"  format="ascii">-1.3667767751292926e-05  -1.1909143067648420e-05  -7.2273043382571589e-06  -1.3891247566427565e-06  -1.7435905502645004e-06  -1.0799847480214194e-05  -2.1949418458766935e-05  -3.1504635893341240e-05  -3.3593019293803793e-05  -5.5185771711027742e-06  -7.2560434321474994e-06  -2.2990663479287642e-06  -4.1097598203148535e-06  -1.1001603298590331e-06  -1.3387285041754510e-05  -4.1831658970646801e-05  -1.5505587848328542e-05  -4.4889010947530422e-05  -1.6607002273849815e-05  -4.4889010947530165e-05  -1.8940309300396589e-05  -4.1831658970646110e-05  -2.3202370195013579e-05  -1.0568920496181512e-05  -2.2779870494138994e-05  -1.4344369731731791e-05  -8.3882970607406267e-06  -3.8574190198762905e-06  -4.2362728853229518e-06  -3.4975195845121710e-06  -2.7679478719149056e-06  -2.2524582079786167e-06  -1.9626355627954589e-06  -9.5065601690079676e-06  -1.2750724767281709e-05  -1.1141700807268363e-05  -6.7727475715268404e-06  -1.3017566276126679e-06  -1.6312310744003383e-06  -1.0075228468511661e-05  -2.0521626229222089e-05  -2.9908775457750099e-05  -3.2589789344084476e-05  -4.2503831246228371e-06  -6.7854498405698624e-06  -2.1456680987203788e-06  -3.9730826496969389e-06  -9.7784167850005604e-07  -1.2485086358960349e-05  -4.0696642216545668e-05  -1.4538300566695707e-05  -4.3024968015754469e-05  -1.5442267394145771e-05  -4.3024968015754225e-05  -1.7758753304218051e-05  -4.0696642216544997e-05  -2.1638711263247062e-05  -9.3938407679578790e-06  -2.2022286503271394e-05  -1.3387285041754159e-05  -7.8442707083699980e-06  -2.9709666456299719e-06  -4.1097598203147180e-06  -3.3203534954792919e-06  -2.5878950622821843e-06  -2.1013288477208033e-06  -1.8272093526460675e-06  -8.8658920995949648e-06  -1.1909143067648463e-05  -1.0440950533335693e-05  -6.3530062919023993e-06  -1.2210802127805473e-06  -1.5286358205870406e-06  -9.4102366305197761e-06  -1.9152382780764166e-05  -2.8262311584749973e-05  -3.1505959535693852e-05  -2.8942879972924842e-06  -6.3095511820721272e-06  -2.0010667903638881e-06  -3.8253092927141842e-06  -8.4333101747631554e-07  -1.1647395738326583e-05  -3.9481267975618750e-05  -1.3595413283413325e-05  -4.1042483863305398e-05  -1.4222537140157067e-05  -4.1042483863305161e-05  -1.6607002273849724e-05  -3.9481267975618099e-05  -2.0186855429281192e-05  -8.1016359468379496e-06  -2.1203197777474895e-05  -1.2485086358960024e-05  -7.2941114713675411e-06  -2.0230724738646162e-06  -3.9730826496968068e-06  -3.1375696137513708e-06  -2.4152255905869676e-06  -1.3677433354856921e-06  -1.7040696819805949e-06  -8.2710324052483939e-06  -1.1141700807268403e-05  -9.7938722403572010e-06  -5.9566858010960482e-06  -1.1449053930168799e-06  -1.4338985594331732e-06  -8.8038274850913702e-06  -1.7861661438588993e-05  -2.6593464955731622e-05  -3.0334138605689427e-05  -1.4691919651739346e-06  -5.8111819808768983e-06  -1.8668046128062213e-06  -3.6664610445922680e-06  -6.9592431186492903e-07  -1.0878636684965601e-05  -3.8168250126584969e-05  -1.2641896700825881e-05  -3.8963485826394894e-05  -1.2910095710467490e-05  -3.8963485826394664e-05  -1.5442267394145687e-05  -3.8168250126584339e-05  -1.8854469356136669e-05  -6.6855425739652897e-06  -2.0322722353448564e-05  -1.1647395738326280e-05  -6.7179753243554851e-06  -1.0269475001613267e-06  -3.8253092927140571e-06  -2.9523008873233193e-06  -5.8606128120665240e-06  -1.2759741854270365e-06  -1.5897346146482794e-06  -7.7251222992447058e-06  -1.0440950533335729e-05  -9.1828997220172662e-06  -5.5703625670566846e-06  -1.0706520969947858e-06  -1.3444474626248141e-06  -8.2501162852888074e-06  -1.6663227897494305e-05  -2.4932866784387373e-05  -2.9074495422070609e-05  0.0000000000000000e+00  -5.2749319495351510e-06  -1.7435905502644591e-06  -3.4975195845122867e-06  -5.3599775077067009e-07  -1.0177601733925085e-05  -3.6748634440565162e-05  -1.1643357854150880e-05  -3.6818564451397961e-05  -1.1474718108348316e-05  -3.6818564451397751e-05  -1.4222537140156991e-05  -3.6748634440564559e-05  -1.7639460308151721e-05  -5.1491745887194345e-06  -1.9386301552726956e-05  -1.0878636684965317e-05  -6.0980473148569604e-06  0.0000000000000000e+00  -3.6664610445921464e-06  -6.5597536230480931e-06  -5.4829465166701109e-06  -1.1917565002947145e-06  -1.4848079078625971e-06  -7.2273043382572410e-06  -9.7938722403572366e-06  -8.5873390970442123e-06  -5.1796842575423312e-06  -9.9556173325335776e-07  -1.2572527860713414e-06  -7.7388150253399026e-06  -1.5563410599944798e-05  -2.3311003611934784e-05  -2.7734814555983684e-05  -2.0878116595355487e-05  -4.6884514661312511e-06  -1.6312310744002997e-06  -3.3203534954794016e-06  -3.6498635796954854e-07  -9.5374878656391008e-06  -3.5222625494602357e-05  -1.0568920496181683e-05  -3.4644484069269378e-05  -9.8962704396187529e-06  -3.4644484069269175e-05  -1.2910095710467421e-05  -3.5222625494601781e-05  -1.6530037531792648e-05  -3.5063178473861876e-06  -1.8404292690755793e-05  -1.0177601733924821e-05  -5.4200507508724078e-06  -4.3544212247904038e-06  -3.6191531528465822e-06  -6.1505355842168008e-06  -5.1381000394600700e-06  -1.1149580020976985e-06  -1.3891247566427788e-06  -6.7727475715269183e-06  -9.1828997220173001e-06  -7.9850646344265228e-06  -4.7705592609483403e-06  -9.1692582216798795e-07  -1.1690751518183348e-06  -7.2560434321476273e-06  -1.4560482098523828e-05  -2.1755647393275569e-05  -2.6329913595115681e-05  -2.0311631480662004e-05  -4.0435140291686437e-06  -1.5286358205870046e-06  -3.1375696137514745e-06  -1.8527355433481025e-07  -8.9464017046907705e-06  -3.3599653995236480e-05  -9.3938407679580298e-06  -3.2481149318105477e-05  -8.1664910373278637e-06  -3.2481149318105287e-05  -1.1474718108348251e-05  -3.3599653995235931e-05  -1.5505587848328292e-05  -1.7798691814860089e-06  -1.7391145125879555e-05  -9.5374878656388535e-06  -4.6744754442436399e-06  -3.2546990166347527e-07  -3.2851813381570511e-06  -5.7516401451571123e-06  -4.8196661007040801e-06  -1.0448334188847213e-06  -1.3017566276126887e-06  -6.3530062919024730e-06  -8.5873390970442445e-06  -7.3543525332775946e-06  -4.3303368480864428e-06  -8.3231282906371023e-07  -1.0767340275868088e-06  -6.7854498405699818e-06  -1.3644709722687263e-05  -2.0289486303829232e-05  -2.4880464366583677e-05  -1.9705040067998471e-05  -3.3367440067439524e-06  -1.4338985594331393e-06  -2.9523008873234171e-06  0.0000000000000000e+00  -8.3882970607408452e-06  -3.1897670876241519e-05  -8.1016359468380800e-06  -3.0368276364765177e-05  -6.2897943829071753e-06  -3.0368276364765004e-05  -9.8962704396186970e-06  -3.1897670876240990e-05  -1.4538300566695472e-05  0.0000000000000000e+00  -1.6364224386184869e-05  -8.9464017046905384e-06  -2.4955386895843123e-06  -2.2162793382258956e-07  -2.9199264386238717e-06  -5.3482479024090460e-06  -4.5190001880969341e-06  -9.8007982935470684e-07  -1.2210802127805667e-06  -5.9566858010961168e-06  -7.9850646344265533e-06  -6.6757002746757640e-06  -3.8488788743601151e-06  -7.3977415083951630e-07  -9.7737409393816024e-07  -6.3095511820722382e-06  -1.2799078336219739e-05  -1.8928157123915552e-05  -2.3411310685998362e-05  -1.9049714880844259e-05  -2.5699451104380978e-06  -1.3444474626247823e-06  -2.7679478719149975e-06  -2.4135997215054299e-05  -7.8442707083702030e-06  -3.0141719255795912e-05  -6.6855425739653973e-06  -2.8342044964341191e-05  -4.2830201076288437e-06  -2.8342044964341031e-05  -8.1664910373278179e-06  -3.0141719255795421e-05  -1.3595413283413107e-05  -2.4135997215053668e-05  -1.5342379314984072e-05  -1.3102835604605530e-06  -2.4125452344500432e-06  -1.1250227342090725e-07  -2.5182650612908223e-06  -4.9258086578410502e-06  -4.2259186280507651e-06  -9.1893937062505726e-07  -1.1449053930168979e-06  -5.5703625670567498e-06  -7.3543525332776209e-06  -5.9334787708521150e-06  -3.3194319782279828e-06  -6.3801175696166747e-07  -8.6870713167908958e-07  -5.8111819808770008e-06  -1.2000631620600230e-05  -1.7678848481935823e-05  -2.1949418458766728e-05  -1.8341186877350189e-05  -1.7499978399009687e-06  -1.2572527860713116e-06  -2.5878950622822698e-06  -2.3481116153912360e-05  -7.2941114713677317e-06  -2.8361896454606678e-05  -5.1491745887195175e-06  -2.6432012007339899e-05  -2.1741370363603102e-06  -2.6432012007339754e-05  -6.2897943829071397e-06  -2.8361896454606221e-05  -1.2641896700825678e-05  -2.3481116153911746e-05  -3.3842856122520366e-06  -1.2284644184997283e-06  -2.3228139251367006e-06  0.0000000000000000e+00  -2.0780948922248404e-06  -4.4712599867027013e-06  -3.9295331188711627e-06  -8.5934119113393041e-07  -1.0706520969948030e-06  -5.1796842575423913e-06  -6.6757002746757885e-06  -5.1172769570146175e-06  -2.7392250105346403e-06  -5.2649301842826212e-07  -7.4920888049242248e-07  -5.2749319495352450e-06  -1.1222325869215415e-05  -1.6539598129259323e-05  -2.0521626229221896e-05  -1.7579558161603507e-05  -8.8832996849636682e-07  -1.1690751518183070e-06  -2.4152255905870477e-06  -2.2779870494139587e-05  -6.7179753243556604e-06  -2.6590870623005754e-05  -3.5063178473862443e-06  -2.4658548219711645e-05  0.0000000000000000e+00  -2.4658548219711506e-05  -4.2830201076288200e-06  -2.6590870623005321e-05  -1.1643357854150692e-05  -1.3687679474201114e-06  -3.1745443870699184e-06  -1.1485537842247839e-06  -2.2263576925847554e-06  -1.3002707839856236e-05  -1.6005392671735240e-06  -3.9741338164481249e-06  -3.6191531528465632e-06  -7.9907115308761907e-07  -9.9556173325337364e-07  -4.7705592609483946e-06  -5.9334787708521371e-06  -4.2228227957151730e-06  -2.1097386877702538e-06  -4.0550253650109740e-07  -6.1825388109174581e-07  -4.6884514661313342e-06  -1.0435246168993871e-05  -1.5499350493794739e-05  -1.9152382780763987e-05  -1.6769535584720377e-05  0.0000000000000000e+00  -1.0767340275867830e-06  -2.2524582079786912e-06  -2.2022286503271964e-05  -6.0980473148571188e-06  -2.4861155618315246e-05  -1.7798691814860377e-06  -2.3031018545909630e-05  -5.1098002036612121e-05  -2.3031018545909502e-05  -2.1741370363602975e-06  -2.4861155618314843e-05  -7.2113220830779021e-06  -1.0542188692591054e-06  -2.9765063351993056e-06  -1.0719200064390866e-06  -2.1237726344943881e-06  -1.2649905880525031e-05  -1.0898833009522413e-06  -3.4274570093527041e-06  -3.2851813381570342e-06  -7.3595534012869429e-07  -9.1692582216800256e-07  -4.3303368480864928e-06  -5.1172769570146362e-06  -3.2523989776143221e-06  -1.4366214015069246e-06  -2.7612596084992412e-07  -4.7617633702489575e-07  -4.0435140291687157e-06  -9.6110028674585763e-06  -1.4538777677385097e-05  -1.7861661438588827e-05  -1.5920078430113197e-05  -3.8684347941812929e-06  -9.7737409393813695e-07  -2.1013288477208727e-06  -2.1203197777475448e-05  -5.4200507508725492e-06  -2.3202370195013955e-05  0.0000000000000000e+00  -2.1546866677775424e-05  -4.9711561961325000e-05  -2.1546866677775306e-05  0.0000000000000000e+00  -8.1492064164891336e-07  -6.8790421905589092e-06  -7.1786776164716609e-07  -2.7834638293580096e-06  -9.9968095163045697e-07  -2.0161933965354091e-06  -1.2272126070693707e-05  -5.5324411054953611e-07  -2.8283682341227258e-06  -2.9199264386238565e-06  -6.6804212118135283e-07  -8.3231282906372336e-07  -3.8488788743601592e-06  -4.2228227957151874e-06  -2.2147131322781135e-06  -7.2925452548791242e-07  -1.4016643935784685e-07  -3.2425111253192077e-07  -3.3367440067440116e-06  -8.7241091845795293e-06  -1.3631803051502858e-05  -1.6663227897494153e-05  -1.5043685679512709e-05  -3.7634727053809298e-06  -8.6870713167906893e-07  -1.9626355627955241e-06  -2.0322722353449093e-05  -4.6744754442437619e-06  -2.1638711263247415e-05  -5.1098002036612399e-05  -2.0191690032124346e-05  -4.8226964004507000e-05  -2.0191690032124234e-05  -9.8618112488795820e-08  -7.6366671976148195e-07  -6.5305858140484463e-06  -3.6440241899079809e-07  -2.5882451285360760e-06  -9.3260705780784312e-07  -1.9052029083736215e-06  -1.1863995293679038e-05  0.0000000000000000e+00  -2.1783963945424446e-06  -2.5182650612908092e-06  -5.9376748220726454e-07  -7.3977415083952816e-07  -3.3194319782280209e-06  -3.2523989776143331e-06  -1.1242277002675843e-06  0.0000000000000000e+00  0.0000000000000000e+00  -1.6459562064184787e-07  -2.5699451104381431e-06  -7.7541403165846528e-06  -1.2747707026213892e-05  -1.5563410599944649e-05  -1.4155378859351080e-05  -3.6510794578443584e-06  -7.4920888049240459e-07  -1.8361605121509694e-06  -1.9386301552727461e-05  -3.8574190198763904e-06  -2.0186855429281521e-05  -4.9711561961325278e-05  -1.8940309300396694e-05  -4.6623092908428432e-05  -7.4789040366930795e-07  -5.0060304511747678e-08  -7.1633844674170053e-07  -6.1710801690397771e-06  0.0000000000000000e+00  -2.3838087716568297e-06  -8.7105251505637187e-07  -1.7927035665663896e-06  -1.1422730269426829e-05  -1.7697192726581642e-05  -1.4833736990777494e-06  -2.0780948922248294e-06  -5.1208958047514211e-07  -6.3801175696167764e-07  -2.7392250105346716e-06  -2.2147131322781215e-06  0.0000000000000000e+00  -3.2942840694909179e-06  -3.8684347941813861e-06  0.0000000000000000e+00  -1.7499978399009998e-06  -6.6874906097992426e-06  -1.1853644463636928e-05  -1.4560482098523689e-05  -1.3271462593168656e-05  -3.5296564959640388e-06  -6.1825388109173109e-07  -1.7206763500709067e-06  -1.8404292690756270e-05  -2.9709666456300490e-06  -1.8854469356136974e-05  -4.8226964004507271e-05  -1.7758753304218146e-05  -8.8307272552960207e-07  -6.9924072719080936e-07  0.0000000000000000e+00  -6.7165100401745968e-07  -5.8066872457425540e-06  -8.5644259015568297e-06  -2.1638332945989232e-06  -8.1492064164890987e-07  -1.6807602651065009e-06  -1.0948394587466794e-05  -1.7217015493846943e-05  -7.5298682165496016e-07  -1.6005392671735158e-06  -4.2258091012924482e-07  -5.2649301842827049e-07  -2.1097386877702779e-06  -1.1242277002675886e-06  -1.7139420655366019e-05  -3.2049003896740507e-06  -3.7634727053810196e-06  -2.0878116595355853e-05  -8.8832996849638259e-07  -5.5185771711028259e-06  -1.0917366881900139e-05  -1.3644709722687133e-05  -1.2408164497102113e-05  -3.3983757662655566e-06  -4.7617633702488437e-07  -1.6140373700453374e-06  -1.7391145125880006e-05  -2.0230724738646692e-06  -1.7639460308152009e-05  -4.6623092908428696e-05  -2.8334874768320857e-06  -7.6159836147383005e-07  -6.5258600431910924e-07  -1.9325694649423992e-06  -6.2809081019792564e-07  -5.4440953744726982e-06  -8.3320476711274393e-06  -1.9232527508568066e-06  -7.6366671976147867e-07  -1.5714281454079815e-06  -1.0443919633378174e-05  -1.6702842431963378e-05  0.0000000000000000e+00  -1.0898833009522356e-06  -3.2546990166347209e-07  -4.0550253650110380e-07  -1.4366214015069411e-06  0.0000000000000000e+00  -1.6674377430255628e-05  -3.1091884791527730e-06  -3.6510794578444453e-06  -2.0311631480662363e-05  0.0000000000000000e+00  -4.2503831246228760e-06  -9.9099232410274664e-06  -1.2799078336219619e-05  -1.1580267245915833e-05  -3.2572561872659109e-06  -3.2425111253191305e-07  -1.5133486483150446e-06  -1.6364224386185296e-05  -1.0269475001613536e-06  -1.6530037531792919e-05  -2.6420960274519941e-07  -2.6661743393381069e-06  -6.2847779180731706e-07  -6.0860679332373012e-07  -1.8801331338202445e-06  -5.8403955626324996e-07  -5.0899612962885686e-06  -8.0832174099039128e-06  -1.6586925418562025e-06  -7.1633844674169746e-07  -1.4665793547327885e-06  -9.9148851702652551e-06  -1.6147360519469838e-05  -1.3002707839856172e-05  -5.5324411054953314e-07  -2.2162793382258742e-07  -2.7612596084992851e-07  -7.2925452548792078e-07  -2.6422340614765589e-05  -1.6176409841077311e-05  -3.0057870389645087e-06  -3.5296564959641231e-06  -1.9705040067998817e-05  -3.4529918203459325e-05  -2.8942879972925109e-06  -8.8081125203402532e-06  -1.2000631620600117e-05  -1.0799847480214004e-05  -3.1071698753049854e-06  -1.6459562064184395e-07  -1.4151998179808022e-06  -1.5342379314984472e-05  0.0000000000000000e+00  -7.4789040366930880e-07  -2.2786526490863767e-07  -2.4996881653942499e-06  -4.8405074671887687e-07  -5.6777213765830186e-07  -1.8239843889631245e-06  -5.3790833096336393e-07  -4.7503490219005221e-06  -7.8143960350843757e-06  -1.3687679474201082e-06  -6.7165100401745682e-07  -1.3677433354857054e-06  -9.3690754542891922e-06  -1.5546781603610918e-05  -1.2649905880524968e-05  0.0000000000000000e+00  -1.1250227342090615e-07  -1.4016643935784910e-07  0.0000000000000000e+00  -2.5705424288273025e-05  -1.5638435354854206e-05  -2.8939909148247497e-06  -3.3983757662656375e-06  -1.9049714880844595e-05  -3.3593019293804105e-05  -1.4691919651739484e-06  -7.5964797340390656e-06  -1.1222325869215308e-05  -1.0075228468511483e-05  -2.9497768653540940e-06  0.0000000000000000e+00  -1.3159445422499981e-06  -1.4344369731732166e-05  -3.3094236895983849e-08  -6.9924072719081010e-07  -1.8803645827472126e-07  -2.3370854365092122e-06  -3.2961317256152706e-07  -5.3029766861157159e-07  -1.7633246335432501e-06  -4.8827069092949195e-07  -4.4302125179713053e-06  -7.5237502980808338e-06  -1.0542188692591031e-06  -6.2809081019792299e-07  -1.2759741854270490e-06  -8.8158457603194359e-06  -1.4901192232217795e-05  -1.2272126070693648e-05  -2.6441026026623884e-06  0.0000000000000000e+00  0.0000000000000000e+00  -2.6422340614765690e-05  -2.4937751359242963e-05  -1.5056785212106513e-05  -2.7738162173757818e-06  -3.2572561872659884e-06  -1.8341186877350514e-05  -3.2589789344084781e-05  0.0000000000000000e+00  -6.2686831409654474e-06  -1.0435246168993773e-05  -9.4102366305196117e-06  -2.7873930509756758e-06  -4.3544212247905478e-06  -1.2120027227111046e-06  -1.6648932115223075e-07  -1.6799222118402320e-08  -6.5258600431910998e-07  -1.4482482790124910e-07  -2.1811504785929668e-06  -1.6731749749710460e-07  -4.9612452624844941e-07  -1.6977401935696822e-06  -4.3398350133389527e-07  -4.1329660779372374e-06  -7.2113220830778852e-06  -7.1786776164716450e-07  -5.8403955626324742e-07  -1.1917565002947261e-06  -8.2653504648470740e-06  -1.4214582135444409e-05  -1.1863995293678979e-05  -2.5723602709587835e-06  -3.2942840694909713e-06  -1.7139420655366215e-05  -2.5705424288273127e-05  -2.4108403308170413e-05  -1.4431543232890221e-05  -2.6460056239840527e-06  -3.1071698753050591e-06  -1.7579558161603819e-05  -3.1505959535694143e-05  -3.9223355837875306e-05  -4.8281113428088388e-06  -9.6110028674584865e-06  -8.8038274850912161e-06  -2.6228017194095786e-06  -4.2362728853230916e-06  -3.3244730311196029e-07  -1.5601807987386315e-07  0.0000000000000000e+00  -6.0860679332373087e-07  -9.8618112488795965e-08  -2.0341579343523069e-06  0.0000000000000000e+00  -4.6492108579647464e-07  -1.6272405202417361e-06  -3.7428528134457801e-07  -3.8601793399376778e-06  -6.8790421905588932e-06  -3.6440241899079725e-07  -5.3790833096336160e-07  -1.1149580020977095e-06  -7.7276959848278116e-06  -1.3494545588594146e-05  -1.1422730269426771e-05  -2.4955386895842881e-06  -3.2049003896741032e-06  -1.6674377430255821e-05  -2.4937751359243058e-05  -2.3211724330547268e-05  -1.3766573400858917e-05  -2.5119727882463678e-06  -2.9497768653541639e-06  -1.6769535584720672e-05  -3.0334138605689705e-05  -3.8159110069872228e-05  -3.2876906150250432e-06  -8.7241091845794462e-06  -8.2501162852886617e-06  -2.4590238985689975e-06  -6.3101218814468766e-08  -3.1712895331789273e-07  -1.4634885364046314e-07  -1.1765502813829072e-06  -5.6777213765830260e-07  -5.0060304511747744e-08  -1.8976754965458792e-06  -1.1765502813829055e-06  -4.3610758441972058e-07  -1.5522613002125434e-06  -3.0886356776058233e-07  -3.6114238466762196e-06  -6.5305858140484310e-06  0.0000000000000000e+00  -4.8827069092948984e-07  -1.0448334188847317e-06  -7.2120888404079922e-06  -1.2751677268038542e-05  -1.0948394587466741e-05  -2.4125452344500199e-06  -3.1091884791528239e-06  -1.6176409841077497e-05  -2.4108403308170504e-05  -2.2247843644397538e-05  -1.3069230638401044e-05  -2.3736898802199431e-06  -2.7873930509757423e-06  -1.5920078430113475e-05  -2.9074495422070874e-05  -3.7019517294899691e-05  -1.6688901173936707e-06  -7.7541403165845799e-06  -7.7388150253397670e-06  -1.5601807987386315e-07  -4.8600272729094765e-08  -3.0106485559926391e-07  -1.3721915238742586e-07  -1.1446269889705969e-06  -5.30297668611572