<?xml version="1.0"?>
<VTKFile type="UnstructuredGrid"  version="0.1"  >
<UnstructuredGrid>
<Piece  NumberOfPoints="1089" NumberOfCells="2048">
<Points>
<DataArray  type="Float64"  NumberOfComponents="3"  format="ascii">0 0 0  0.03125 0 0  0.0625 0 0  0.09375 0 0  0.125 0 0  0.15625 0 0  0.1875 0 0  0.21875 0 0  0.25 0 0  0.28125 0 0  0.3125 0 0  0.34375 0 0  0.375 0 0  0.40625 0 0  0.4375 0 0  0.46875 0 0  0.5 0 0  0.53125 0 0  0.5625 0 0  0.59375 0 0  0.625 0 0  0.65625 0 0  0.6875 0 0  0.71875 0 0  0.75 0 0  0.78125 0 0  0.8125 0 0  0.84375 0 0  0.875 0 0  0.90625 0 0  0.9375 0 0  0.96875 0 0  1 0 0  0 0.03125 0  0.03125 0.03125 0  0.0625 0.03125 0  0.09375 0.03125 0  0.125 0.03125 0  0.15625 0.03125 0  0.1875 0.03125 0  0.21875 0.03125 0  0.25 0.03125 0  0.28125 0.03125 0  0.3125 0.03125 0  0.34375 0.03125 0  0.375 0.03125 0  0.40625 0.03125 0  0.4375 0.03125 0  0.46875 0.03125 0  0.5 0.03125 0  0.53125 0.03125 0  0.5625 0.03125 0  0.59375 0.03125 0  0.625 0.03125 0  0.65625 0.03125 0  0.6875 0.03125 0  0.71875 0.03125 0  0.75 0.03125 0  0.78125 0.03125 0  0.8125 0.03125 0  0.84375 0.03125 0  0.875 0.03125 0  0.90625 0.03125 0  0.9375 0.03125 0  0.96875 0.03125 0  1 0.03125 0  0 0.0625 0  0.03125 0.0625 0  0.0625 0.0625 0  0.09375 0.0625 0  0.125 0.0625 0  0.15625 0.0625 0  0.1875 0.0625 0  0.21875 0.0625 0  0.25 0.0625 0  0.28125 0.0625 0  0.3125 0.0625 0  0.34375 0.0625 0  0.375 0.0625 0  0.40625 0.0625 0  0.4375 0.0625 0  0.46875 0.0625 0  0.5 0.0625 0  0.53125 0.0625 0  0.5625 0.0625 0  0.59375 0.0625 0  0.625 0.0625 0  0.65625 0.0625 0  0.6875 0.0625 0  0.71875 0.0625 0  0.75 0.0625 0  0.78125 0.0625 0  0.8125 0.0625 0  0.84375 0.0625 0  0.875 0.0625 0  0.90625 0.0625 0  0.9375 0.0625 0  0.96875 0.0625 0  1 0.0625 0  0 0.09375 0  0.03125 0.09375 0  0.0625 0.09375 0  0.09375 0.09375 0  0.125 0.09375 0  0.15625 0.09375 0  0.1875 0.09375 0  0.21875 0.09375 0  0.25 0.09375 0  0.28125 0.09375 0  0.3125 0.09375 0  0.34375 0.09375 0  0.375 0.09375 0  0.40625 0.09375 0  0.4375 0.09375 0  0.46875 0.09375 0  0.5 0.09375 0  0.53125 0.09375 0  0.5625 0.09375 0  0.59375 0.09375 0  0.625 0.09375 0  0.65625 0.09375 0  0.6875 0.09375 0  0.71875 0.09375 0  0.75 0.09375 0  0.78125 0.09375 0  0.8125 0.09375 0  0.84375 0.09375 0  0.875 0.09375 0  0.90625 0.09375 0  0.9375 0.09375 0  0.96875 0.09375 0  1 0.09375 0  0 0.125 0  0.03125 0.125 0  0.0625 0.125 0  0.09375 0.125 0  0.125 0.125 0  0.15625 0.125 0  0.1875 0.125 0  0.21875 0.125 0  0.25 0.125 0  0.28125 0.125 0  0.3125 0.125 0  0.34375 0.125 0  0.375 0.125 0  0.40625 0.125 0  0.4375 0.125 0  0.46875 0.125 0  0.5 0.125 0  0.53125 0.125 0  0.5625 0.125 0  0.59375 0.125 0  0.625 0.125 0  0.65625 0.125 0  0.6875 0.125 0  0.71875 0.125 0  0.75 0.125 0  0.78125 0.125 0  0.8125 0.125 0  0.84375 0.125 0  0.875 0.125 0  0.90625 0.125 0  0.9375 0.125 0  0.96875 0.125 0  1 0.125 0  0 0.15625 0  0.03125 0.15625 0  0.0625 0.15625 0  0.09375 0.15625 0  0.125 0.15625 0  0.15625 0.15625 0  0.1875 0.15625 0  0.21875 0.15625 0  0.25 0.15625 0  0.28125 0.15625 0  0.3125 0.15625 0  0.34375 0.15625 0  0.375 0.15625 0  0.40625 0.15625 0  0.4375 0.15625 0  0.46875 0.15625 0  0.5 0.15625 0  0.53125 0.15625 0  0.5625 0.15625 0  0.59375 0.15625 0  0.625 0.15625 0  0.65625 0.15625 0  0.6875 0.15625 0  0.71875 0.15625 0  0.75 0.15625 0  0.78125 0.15625 0  0.8125 0.15625 0  0.84375 0.15625 0  0.875 0.15625 0  0.90625 0.15625 0  0.9375 0.15625 0  0.96875 0.15625 0  1 0.15625 0  0 0.1875 0  0.03125 0.1875 0  0.0625 0.1875 0  0.09375 0.1875 0  0.125 0.1875 0  0.15625 0.1875 0  0.1875 0.1875 0  0.21875 0.1875 0  0.25 0.1875 0  0.28125 0.1875 0  0.3125 0.1875 0  0.34375 0.1875 0  0.375 0.1875 0  0.40625 0.1875 0  0.4375 0.1875 0  0.46875 0.1875 0  0.5 0.1875 0  0.53125 0.1875 0  0.5625 0.1875 0  0.59375 0.1875 0  0.625 0.1875 0  0.65625 0.1875 0  0.6875 0.1875 0  0.71875 0.1875 0  0.75 0.1875 0  0.78125 0.1875 0  0.8125 0.1875 0  0.84375 0.1875 0  0.875 0.1875 0  0.90625 0.1875 0  0.9375 0.1875 0  0.96875 0.1875 0  1 0.1875 0  0 0.21875 0  0.03125 0.21875 0  0.0625 0.21875 0  0.09375 0.21875 0  0.125 0.21875 0  0.15625 0.21875 0  0.1875 0.21875 0  0.21875 0.21875 0  0.25 0.21875 0  0.28125 0.21875 0  0.3125 0.21875 0  0.34375 0.21875 0  0.375 0.21875 0  0.40625 0.21875 0  0.4375 0.21875 0  0.46875 0.21875 0  0.5 0.21875 0  0.53125 0.21875 0  0.5625 0.21875 0  0.59375 0.21875 0  0.625 0.21875 0  0.65625 0.21875 0  0.6875 0.21875 0  0.71875 0.21875 0  0.75 0.21875 0  0.78125 0.21875 0  0.8125 0.21875 0  0.84375 0.21875 0  0.875 0.21875 0  0.90625 0.21875 0  0.9375 0.21875 0  0.96875 0.21875 0  1 0.21875 0  0 0.25 0  0.03125 0.25 0  0.0625 0.25 0  0.09375 0.25 0  0.125 0.25 0  0.15625 0.25 0  0.1875 0.25 0  0.21875 0.25 0  0.25 0.25 0  0.28125 0.25 0  0.3125 0.25 0  0.34375 0.25 0  0.375 0.25 0  0.40625 0.25 0  0.4375 0.25 0  0.46875 0.25 0  0.5 0.25 0  0.53125 0.25 0  0.5625 0.25 0  0.59375 0.25 0  0.625 0.25 0  0.65625 0.25 0  0.6875 0.25 0  0.71875 0.25 0  0.75 0.25 0  0.78125 0.25 0  0.8125 0.25 0  0.84375 0.25 0  0.875 0.25 0  0.90625 0.25 0  0.9375 0.25 0  0.96875 0.25 0  1 0.25 0  0 0.28125 0  0.03125 0.28125 0  0.0625 0.28125 0  0.09375 0.28125 0  0.125 0.28125 0  0.15625 0.28125 0  0.1875 0.28125 0  0.21875 0.28125 0  0.25 0.28125 0  0.28125 0.28125 0  0.3125 0.28125 0  0.34375 0.28125 0  0.375 0.28125 0  0.40625 0.28125 0  0.4375 0.28125 0  0.46875 0.28125 0  0.5 0.28125 0  0.53125 0.28125 0  0.5625 0.28125 0  0.59375 0.28125 0  0.625 0.28125 0  0.65625 0.28125 0  0.6875 0.28125 0  0.71875 0.28125 0  0.75 0.28125 0  0.78125 0.28125 0  0.8125 0.28125 0  0.84375 0.28125 0  0.875 0.28125 0  0.90625 0.28125 0  0.9375 0.28125 0  0.96875 0.28125 0  1 0.28125 0  0 0.3125 0  0.03125 0.3125 0  0.0625 0.3125 0  0.09375 0.3125 0  0.125 0.3125 0  0.15625 0.3125 0  0.1875 0.3125 0  0.21875 0.3125 0  0.25 0.3125 0  0.28125 0.3125 0  0.3125 0.3125 0  0.34375 0.3125 0  0.375 0.3125 0  0.40625 0.3125 0  0.4375 0.3125 0  0.46875 0.3125 0  0.5 0.3125 0  0.53125 0.3125 0  0.5625 0.3125 0  0.59375 0.3125 0  0.625 0.3125 0  0.65625 0.3125 0  0.6875 0.3125 0  0.71875 0.3125 0  0.75 0.3125 0  0.78125 0.3125 0  0.8125 0.3125 0  0.84375 0.3125 0  0.875 0.3125 0  0.90625 0.3125 0  0.9375 0.3125 0  0.96875 0.3125 0  1 0.3125 0  0 0.34375 0  0.03125 0.34375 0  0.0625 0.34375 0  0.09375 0.34375 0  0.125 0.34375 0  0.15625 0.34375 0  0.1875 0.34375 0  0.21875 0.34375 0  0.25 0.34375 0  0.28125 0.34375 0  0.3125 0.34375 0  0.34375 0.34375 0  0.375 0.34375 0  0.40625 0.34375 0  0.4375 0.34375 0  0.46875 0.34375 0  0.5 0.34375 0  0.53125 0.34375 0  0.5625 0.34375 0  0.59375 0.34375 0  0.625 0.34375 0  0.65625 0.34375 0  0.6875 0.34375 0  0.71875 0.34375 0  0.75 0.34375 0  0.78125 0.34375 0  0.8125 0.34375 0  0.84375 0.34375 0  0.875 0.34375 0  0.90625 0.34375 0  0.9375 0.34375 0  0.96875 0.34375 0  1 0.34375 0  0 0.375 0  0.03125 0.375 0  0.0625 0.375 0  0.09375 0.375 0  0.125 0.375 0  0.15625 0.375 0  0.1875 0.375 0  0.21875 0.375 0  0.25 0.375 0  0.28125 0.375 0  0.3125 0.375 0  0.34375 0.375 0  0.375 0.375 0  0.40625 0.375 0  0.4375 0.375 0  0.46875 0.375 0  0.5 0.375 0  0.53125 0.375 0  0.5625 0.375 0  0.59375 0.375 0  0.625 0.375 0  0.65625 0.375 0  0.6875 0.375 0  0.71875 0.375 0  0.75 0.375 0  0.78125 0.375 0  0.8125 0.375 0  0.84375 0.375 0  0.875 0.375 0  0.90625 0.375 0  0.9375 0.375 0  0.96875 0.375 0  1 0.375 0  0 0.40625 0  0.03125 0.40625 0  0.0625 0.40625 0  0.09375 0.40625 0  0.125 0.40625 0  0.15625 0.40625 0  0.1875 0.40625 0  0.21875 0.40625 0  0.25 0.40625 0  0.28125 0.40625 0  0.3125 0.40625 0  0.34375 0.40625 0  0.375 0.40625 0  0.40625 0.40625 0  0.4375 0.40625 0  0.46875 0.40625 0  0.5 0.40625 0  0.53125 0.40625 0  0.5625 0.40625 0  0.59375 0.40625 0  0.625 0.40625 0  0.65625 0.40625 0  0.6875 0.40625 0  0.71875 0.40625 0  0.75 0.40625 0  0.78125 0.40625 0  0.8125 0.40625 0  0.84375 0.40625 0  0.875 0.40625 0  0.90625 0.40625 0  0.9375 0.40625 0  0.96875 0.40625 0  1 0.40625 0  0 0.4375 0  0.03125 0.4375 0  0.0625 0.4375 0  0.09375 0.4375 0  0.125 0.4375 0  0.15625 0.4375 0  0.1875 0.4375 0  0.21875 0.4375 0  0.25 0.4375 0  0.28125 0.4375 0  0.3125 0.4375 0  0.34375 0.4375 0  0.375 0.4375 0  0.40625 0.4375 0  0.4375 0.4375 0  0.46875 0.4375 0  0.5 0.4375 0  0.53125 0.4375 0  0.5625 0.4375 0  0.59375 0.4375 0  0.625 0.4375 0  0.65625 0.4375 0  0.6875 0.4375 0  0.71875 0.4375 0  0.75 0.4375 0  0.78125 0.4375 0  0.8125 0.4375 0  0.84375 0.4375 0  0.875 0.4375 0  0.90625 0.4375 0  0.9375 0.4375 0  0.96875 0.4375 0  1 0.4375 0  0 0.46875 0  0.03125 0.46875 0  0.0625 0.46875 0  0.09375 0.46875 0  0.125 0.46875 0  0.15625 0.46875 0  0.1875 0.46875 0  0.21875 0.46875 0  0.25 0.46875 0  0.28125 0.46875 0  0.3125 0.46875 0  0.34375 0.46875 0  0.375 0.46875 0  0.40625 0.46875 0  0.4375 0.46875 0  0.46875 0.46875 0  0.5 0.46875 0  0.53125 0.46875 0  0.5625 0.46875 0  0.59375 0.46875 0  0.625 0.46875 0  0.65625 0.46875 0  0.6875 0.46875 0  0.71875 0.46875 0  0.75 0.46875 0  0.78125 0.46875 0  0.8125 0.46875 0  0.84375 0.46875 0  0.875 0.46875 0  0.90625 0.46875 0  0.9375 0.46875 0  0.96875 0.46875 0  1 0.46875 0  0 0.5 0  0.03125 0.5 0  0.0625 0.5 0  0.09375 0.5 0  0.125 0.5 0  0.15625 0.5 0  0.1875 0.5 0  0.21875 0.5 0  0.25 0.5 0  0.28125 0.5 0  0.3125 0.5 0  0.34375 0.5 0  0.375 0.5 0  0.40625 0.5 0  0.4375 0.5 0  0.46875 0.5 0  0.5 0.5 0  0.53125 0.5 0  0.5625 0.5 0  0.59375 0.5 0  0.625 0.5 0  0.65625 0.5 0  0.6875 0.5 0  0.71875 0.5 0  0.75 0.5 0  0.78125 0.5 0  0.8125 0.5 0  0.84375 0.5 0  0.875 0.5 0  0.90625 0.5 0  0.9375 0.5 0  0.96875 0.5 0  1 0.5 0  0 0.53125 0  0.03125 0.53125 0  0.0625 0.53125 0  0.09375 0.53125 0  0.125 0.53125 0  0.15625 0.53125 0  0.1875 0.53125 0  0.21875 0.53125 0  0.25 0.53125 0  0.28125 0.53125 0  0.3125 0.53125 0  0.34375 0.53125 0  0.375 0.53125 0  0.40625 0.53125 0  0.4375 0.53125 0  0.46875 0.53125 0  0.5 0.53125 0  0.53125 0.53125 0  0.5625 0.53125 0  0.59375 0.53125 0  0.625 0.53125 0  0.65625 0.53125 0  0.6875 0.53125 0  0.71875 0.53125 0  0.75 0.53125 0  0.78125 0.531
[...]
<PointData  Scalars="theta_dt"> 
<DataArray  type="Float64"  Name="theta_dt"  format="ascii">1.0965210122992021e-04  1.1266767595970683e-04  7.2041923091148031e-05  1.3846825067588063e-05  1.6495418184811334e-05  8.6643700033322613e-05  1.2167429534506497e-04  1.0315308450550807e-04  1.3862613200883419e-04  7.7537728320812839e-05  7.5407382825483043e-05  1.4592575149281862e-05  1.4743395833992196e-05  1.1041864359991389e-05  9.6237943288530111e-05  7.8108029590353203e-05  1.6164459858818538e-04  1.7614738899650751e-04  1.7013748006114530e-04  2.1516669104620808e-04  1.9745131393575079e-04  1.6536148142220637e-04  1.6679620849355985e-04  1.0607598127567667e-04  1.5942900408311825e-04  9.1046216855793761e-05  8.7174165042991727e-05  5.4197938836277210e-05  8.5303255283118747e-05  1.1451645861970042e-05  1.5343828243094075e-05  1.8070747171868787e-05  1.8567716111894772e-05  6.8340353967251031e-05  1.1217200500990034e-04  1.1106071020324165e-04  6.9699111373164324e-05  1.3396524705892102e-05  1.6260145983305695e-05  8.8634850086777940e-05  1.3025434137870097e-04  1.0969606909510808e-04  1.4948822762248759e-04  7.9878211723494324e-05  6.9516419515021263e-05  1.5424687242903234e-05  1.5641649064602071e-05  1.0285931645122477e-05  1.0016382910570837e-04  8.5303255283120997e-05  1.5108718776512346e-04  1.7982644730070004e-04  1.5536845469925784e-04  2.1966071622585393e-04  1.8455527746450513e-04  1.8059439903596926e-04  1.7360041530542749e-04  9.8813955417194867e-05  1.6914234418353107e-04  9.6237943288527618e-05  8.0363959083757036e-05  5.5833908564214219e-05  9.1987219566144968e-05  1.2178022031520513e-05  1.6425821381288099e-05  1.8486029173715461e-05  1.3135364602140272e-05  7.1128198524325465e-05  1.1266767595970719e-04  1.0744900299017138e-04  6.6229617472611987e-05  1.2729670282069614e-05  1.5731364144741811e-05  8.9026513945551073e-05  1.3768183183868608e-04  1.1822248589939819e-04  1.5859591793427138e-04  8.4970448583562990e-05  6.3481948083353332e-05  1.6053914747275106e-05  1.6289449313411749e-05  9.8518127009361054e-06  1.0246568386954465e-04  9.1987219566147367e-05  1.3928397902805519e-04  1.3438208968992769e-04  1.4146191892758272e-04  1.3438208968992682e-04  1.7013748006114424e-04  1.9474493184816640e-04  1.7758990878368735e-04  9.4643500909368856e-05  1.7614738899650464e-04  1.0016382910570568e-04  7.3387851588435369e-05  5.9393320838196910e-05  9.7591614786926087e-05  1.3124590970126181e-05  1.7362470634707015e-05  1.0972964525610891e-05  1.3671202545397240e-05  7.2762788416486318e-05  1.1106071020324204e-04  1.0210038873741696e-04  6.1903996409987024e-05  1.1898263851024447e-05  1.4948285696935895e-05  8.7756739290936538e-05  1.4329836033491635e-04  1.2800712861467983e-04  1.6516418159200316e-04  9.2408287992245164e-05  5.7799881002325732e-05  1.6422848128408507e-05  1.6629674814957043e-05  9.7779533659123616e-06  1.0291846406939712e-04  9.7591614786928635e-05  1.2719323560085374e-04  1.4290592536749756e-04  1.2957341020263321e-04  1.4290592536749674e-04  1.5536845469925686e-04  2.0660992320749755e-04  1.7837465145415274e-04  9.3933955747104312e-05  1.7982644730069711e-04  1.0246568386954201e-04  6.6819138619664126e-05  6.4592281061508005e-05  1.0163337995373186e-04  1.4210843153455950e-05  5.5444931804451008e-05  1.1225133106746382e-05  1.3985379059888142e-05  7.3084316060053123e-05  1.0744900299017178e-04  9.5431958375314900e-05  5.7067942459325962e-05  1.0968749615438340e-05  1.3971975974362910e-05  8.4902879922375151e-05  1.4659148537148764e-04  1.3821272771402332e-04  1.6861384188673095e-04  1.0158548560672811e-04  5.2942358958184929e-05  1.6495418184810945e-05  1.1451645861970418e-05  1.0073101780248471e-05  1.0145055017076791e-04  1.0163337995373450e-04  1.1580857399613971e-04  1.5401366599610323e-04  1.2070273614289699e-04  1.5401366599610228e-04  1.4146191892758193e-04  2.1516669104620684e-04  1.7583051486602682e-04  9.6769360770381310e-05  6.3475001237528076e-05  1.0291846406939442e-04  6.1203635037529455e-05  7.1007031735402466e-05  1.0375612007853349e-04  6.8384943002938622e-05  5.4654127290020771e-05  1.1274735254699780e-05  1.4047178312931824e-05  7.2041923091148858e-05  1.0210038873741731e-04  8.7976638426927778e-05  5.2114078741410252e-05  1.0016591741697746e-05  1.2880459537171172e-05  8.0676570314883858e-05  1.4723925074557788e-04  1.4795900619344763e-04  9.0809863009483731e-05  1.1174445575035185e-04  4.9317893031594219e-05  1.6260145983305309e-05  1.2178022031520894e-05  1.0715262127530219e-05  9.8151366479693180e-05  1.0375612007853620e-04  1.0607598127567841e-04  1.6676055321961276e-04  1.1560846309281236e-04  1.6676055321961165e-04  1.2957341020263248e-04  2.1966071622585268e-04  1.7011248607206944e-04  1.0293840856461581e-04  6.7501210990856571e-05  1.0145055017076520e-04  5.7013597152133613e-05  7.8108029590351143e-05  3.5997258776631635e-05  6.3918552268578071e-05  5.2876768713831271e-05  1.1113925037277770e-05  1.3846825067588287e-05  6.9699111373165069e-05  9.5431958375315253e-05  8.0339701499720798e-05  4.7449513456081607e-05  9.1200385022656059e-06  1.1762352971181841e-05  7.5407382825484358e-05  1.4513919470075145e-04  1.5639606936799155e-04  9.6569918921558898e-05  1.2203823198892937e-04  4.7236425606859359e-05  1.5731364144741442e-05  1.3124590970126608e-05  1.1653216442884047e-05  9.3265571515838231e-05  1.1001263305058571e-04  9.8813955417196506e-05  1.8005583896004259e-04  1.1474174298085367e-04  1.8005583896004148e-04  1.2070273614289633e-04  1.1001263305058396e-04  1.6164459858818270e-04  1.1194906302922020e-04  7.2747920963693951e-05  9.8151366479690591e-05  5.4607331637848572e-05  6.1166141856934143e-06  3.2972036665376886e-05  5.8925117512415437e-05  5.0244660170132016e-05  1.0752498902425922e-05  1.3396524705892318e-05  6.6229617472612760e-05  8.7976638426928130e-05  7.3148750576290544e-05  4.3461839889982062e-05  8.3535873037521442e-06  1.0709542201650570e-05  6.9516419515022442e-05  1.4041925120821821e-04  1.6277601775023612e-04  1.0407607102230387e-04  1.3160057730705812e-04  4.6882292708667955e-05  1.4948285696935541e-05  1.4210843153456417e-05  1.2810513828911412e-05  8.7174165042994058e-05  1.1699071776964104e-04  9.4643500909370401e-05  1.9275274739514672e-04  1.1820523295995518e-04  1.9275274739514564e-04  1.1560846309281173e-04  1.1699071776963917e-04  1.5108718776512102e-04  1.2306688261550647e-04  7.8768877209826427e-05  9.3265571515835724e-05  7.3654173106883864e-06  6.5065484060916633e-06  3.0714751085821438e-05  5.3810039078902178e-05  4.6963056431348049e-05  1.0217259232612490e-05  1.2729670282069826e-05  6.1903996409987702e-05  8.0339701499721096e-05  6.7001304210243629e-05  4.0486416034906000e-05  7.7816956626719945e-06  9.8095085610089759e-06  6.3481948083354457e-05  1.3342943848336584e-04  1.6651675684978926e-04  1.1268989065582161e-04  1.3961844815901239e-04  4.8297438990879044e-05  1.3971975974362576e-05  1.5343828243094567e-05  1.4091618375836679e-05  8.0363959083759069e-05  1.2608413041574192e-04  9.3933955747105898e-05  2.0374408309466814e-04  1.2574081783778545e-04  2.0374408309466706e-04  1.1474174298085301e-04  1.2608413041573986e-04  1.3928397902805302e-04  1.3537408160847929e-04  8.5048867949472754e-05  6.3070245462475960e-06  7.8141612750104989e-06  7.0760953833767549e-06  2.9418431435608043e-05  4.8993673782777703e-05  4.3294216166403526e-05  9.5499446168038731e-06  1.1898263851024639e-05  5.7067942459326605e-05  7.3148750576290775e-05  6.2414354385454470e-05  3.8777682126364241e-05  7.4532682900614855e-06  9.1379436697645422e-06  5.7799881002326762e-05  1.2471482995166872e-04  1.6725256895388087e-04  1.2167429534506386e-04  1.4540075826469752e-04  5.1376401248166716e-05  1.2880459537170862e-05  1.6425821381288641e-05  1.5389722746440612e-05  7.3387851588437321e-05  1.3651943939101439e-04  9.6769360770382841e-05  2.1205552428743378e-04  1.3674746810012992e-04  2.1205552428743262e-04  1.1820523295995449e-04  1.3651943939101214e-04  1.2719323560085163e-04  1.4784459296605267e-04  3.4828066056768060e-05  6.8098634484658929e-06  8.1377854400383621e-06  7.7788324114410415e-06  2.9197880573626171e-05  4.4876228447315679e-05  3.9536000302651176e-05  8.8038853949272375e-06  1.0968749615438506e-05  5.2114078741410842e-05  6.7001304210243887e-05  5.9780149282532618e-05  3.8486964681508331e-05  7.3973909143573035e-06  8.7522756919072545e-06  5.2942358958185864e-05  1.1497187826726853e-04  1.6486706531496841e-04  1.3025434137869992e-04  1.4843763477008943e-04  5.5873605020182613e-05  1.1762352971181558e-05  1.7362470634707595e-05  1.6595589472411170e-05  6.6819138619665888e-05  1.4740369781294764e-04  1.0293840856461746e-04  2.1692875071195174e-04  1.5032805232370532e-04  2.1692875071195052e-04  1.2574081783778472e-04  1.4740369781294509e-04  1.1580857399613784e-04  1.9231616039916510e-05  3.3094388820841123e-05  7.2900712171232763e-06  8.3077532566007964e-06  8.5567479349835960e-06  3.0079221262294553e-05  4.1803974695841060e-05  3.5997258776631438e-05  8.0396516315371805e-06  1.0016591741697907e-05  4.7449513456082142e-05  6.2414354385454714e-05  5.9331975712078060e-05  3.9648697221362469e-05  7.6206818339282958e-06  8.6866596187872943e-06  4.9317893031595079e-05  1.0499158124263361e-04  1.5950556917554944e-04  1.3768183183868489e-04  5.4907135798842882e-05  6.1422491660597539e-05  1.0709542201650316e-05  1.8070747171869373e-05  1.7606689087813151e-05  6.1203635037531014e-05  1.5779809137961287e-04  1.1194906302922200e-04  2.1788732571376550e-04  1.6536148142220732e-04  2.1788732571376428e-04  1.3674746810012910e-04  1.5779809137961032e-04  8.3077532566008337e-06  1.9812124124470318e-05  3.0932911965002004e-05  7.7057727887151829e-06  6.9536971885076840e-06  9.3449861341960375e-06  3.1996771942625649e-05  4.0039633070417412e-05  3.2972036665376703e-05  7.3200480078659959e-06  9.1200385022657499e-06  4.3461839889982557e-05  5.9780149282532848e-05  6.1122916811459570e-05  4.2176302097435830e-05  8.1065003831456579e-06  8.9488672318140268e-06  4.7236425606860200e-05  9.5594119041560538e-05  1.5156567455629360e-04  1.4329836033491507e-04  5.8389887139853142e-05  6.7564995731923867e-05  9.8095085610087455e-06  1.8486029173716068e-05  1.8335871639134510e-05  5.7013597152135070e-05  1.6679620849356243e-04  1.2306688261550847e-04  2.1477962451901450e-04  1.8059439903597029e-04  2.1477962451901331e-04  1.5032805232370451e-04  8.1231462580441703e-06  2.2523492187054846e-05  2.1075147251379009e-05  2.8516376041811330e-05  8.0201184934120931e-06  7.3947691522134496e-06  1.0077215558958707e-05  3.4797590995280531e-05  3.9739454741520149e-05  3.0714751085821275e-05  6.7048686347294422e-06  8.3535873037522781e-06  4.0486416034906454e-05  5.9331975712078297e-05  6.5019503418326199e-05  4.5868180474943592e-05  8.8160982377098962e-06  9.5193576144911881e-06  4.6882292708668789e-05  8.7560356125752459e-05  1.4166654333297378e-04  1.4659148537148623e-04  6.2928395392853513e-05  7.3789008753014434e-05  9.1379436697643271e-06  1.8567716111895399e-05  1.8718839227827541e-05  5.4607331637849988e-05  1.7360041530543026e-04  1.3537408160848154e-04  2.0779496614904491e-04  1.9474493184816754e-04  2.0779496614904371e-04  2.8952285551666357e-06  7.8589805969448152e-06  2.3952153898823685e-05  2.2919948160202379e-05  2.6040971558100452e-05  8.2044280203682732e-06  7.9695471226857673e-06  1.0691178009218426e-05  3.8253388911355371e-05  4.0938993808093186e-05  2.9418431435607907e-05  6.2458492712734655e-06  7.7816956626721199e-06  3.8777682126364682e-05  6.1122916811459801e-05  7.0710948302039832e-05  5.0423414270321913e-05  9.6916374071288680e-06  1.0352629115238537e-05  4.8297438990879925e-05  8.1565921167752180e-05  1.3059929264976270e-04  1.4723925074557653e-04  6.8136642037988312e-05  7.9570770508156490e-05  8.7522756919070461e-06  1.8302886969788552e-05  6.3475001237529798e-05  5.4197938836278613e-05  1.7758990878369025e-04  1.4784459296605509e-04  1.9745131393575201e-04  2.0660992320749874e-04  4.1458518836271445e-06  3.1486607236879385e-06  7.4677749601946640e-06  2.5813898345881342e-05  2.5196160588221117e-05  2.3710127094191218e-05  8.2406821341208008e-06  8.6291439041680803e-06  1.1133954071118036e-05  4.2078886555254494e-05  4.3548855105505993e-05  2.9197880573626012e-05  5.9822424746564393e-06  7.4532682900616092e-06  3.8486964681508758e-05  6.5019503418326457e-05  7.7733352462690052e-05  5.5465964956104576e-05  1.0660841368440919e-05  1.1380763336575560e-05  5.1376401248167624e-05  7.8123421956149543e-05  1.1926243574618269e-04  1.4513919470075012e-04  7.3568958660825539e-05  8.4418683599269304e-05  8.6866596187870910e-06  1.7707674956756896e-05  6.7501210990858306e-05  5.5833908564215656e-05  1.7837465145415567e-04  1.5942900408312083e-04  1.8455527746450622e-04  9.2890555722707015e-06  4.4382028679437383e-06  3.4613586678882501e-06  6.9800360015313469e-06  2.7950376618026474e-05  2.7715881211899815e-05  2.1717519790643662e-05  8.1231462580441347e-06  9.3171179585004290e-06  1.1366500613063413e-05  4.5955147257941880e-05  4.7360879122163705e-05  3.0079221262294400e-05  5.9373934235689229e-06  7.3973909143574178e-06  3.9648697221362917e-05  7.0710948302040062e-05  8.5507010304809489e-05  6.0575428582563958e-05  1.1642906338240156e-05  1.2518886900757865e-05  5.5873605020183603e-05  7.7537728320813557e-05  1.0858763478911737e-04  1.4041925120821685e-04  7.8756784488510979e-05  8.7914890681651072e-05  8.9488672318138083e-06  1.6826219382287630e-05  7.2747920963695849e-05  5.9393320838198482e-05  1.7583051486602964e-04  1.6914234418353383e-04  1.1852602087107944e-05  8.8970098989519581e-06  4.6912824130261444e-06  3.8075088994240930e-06  6.4347427629914752e-06  3.0178770782681863e-05  3.0269037675319181e-05  2.0230725245779902e-05  7.8589805969447848e-06  9.9741285518886246e-06  3.4195682443620820e-05  4.9555977752321384e-05  5.2064354928751667e-05  3.1996771942625480e-05  6.1166141856933576e-06  7.6206818339284195e-06  4.2176302097436311e-05  7.7733352462690323e-05  9.3383821955079450e-05  6.5321835970313298e-05  1.2555190047192789e-05  1.3672112979377468e-05  6.1422491660598623e-05  7.9878211723495069e-05  9.9461892303799387e-05  1.3342943848336467e-04  8.3247730888115273e-05  8.9751103017622280e-05  9.5193576144909662e-06  1.5727257139383683e-05  7.8768877209828500e-05  6.4592281061509699e-05  1.7011248607207217e-04  2.7792248720577825e-06  1.2833578555217752e-05  8.8303087491448912e-06  4.8826564019159530e-06  4.1582524273591767e-06  5.8761657873028298e-06  3.2306872217908025e-05  3.2640777956881999e-05  1.9376885128342693e-05  7.4677749601946233e-06  1.0542883066184839e-05  3.6364709422620339e-05  5.2575215491935159e-05  5.7271006490332524e-05  3.4797590995280342e-05  6.5065484060916006e-06  8.1065003831457884e-06  4.5868180474944094e-05  8.5507010304809801e-05  1.0070094166509073e-04  6.9301621282352515e-05  1.3320125083041861e-05  1.4743395833992546e-05  6.7564995731925074e-05  8.4970448583563735e-05  9.2652670978129171e-05  1.2471482995166761e-04  8.6643700033321109e-05  1.0173555339772961e-05  1.0352629115238289e-05  1.4498614912179932e-05  8.5048867949474882e-05  7.1007031735404309e-05  4.1458518836271462e-06  2.6619273623386372e-06  1.3856758741836393e-05  9.0968524242757468e-06  4.9948642318209466e-06  4.4840736473352444e-06  5.3502088941896298e-06  3.4149106285890531e-05  3.4629443565505882e-05  1.9231616039916463e-05  6.9800360015313172e-06  1.0972964525611006e-05  3.9191252543644374e-05  5.4752622588605907e-05  6.2546748555663100e-05  3.8253388911355161e-05  7.0760953833766863e-06  8.8160982377100402e-06  5.0423414270322489e-05  9.3383821955079815e-05  1.0683622740215089e-04  7.2171753921449925e-05  1.3871779215373594e-05  1.5641649064602448e-05  7.3789008753015735e-05  9.2408287992246018e-05  8.8742254198318534e-05  1.1497187826726741e-04  8.8634850086776408e-05  1.0818862420299695e-05  1.1380763336575294e-05  1.3240042072889803e-05  9.1046216855796241e-05  9.7157993855933398e-07  4.4382028679437485e-06  2.6419708131398102e-06  1.4833888936383813e-05  9.6767768645706082e-06  5.0169357736260914e-06  4.7572694351553733e-06  4.9005754832966464e-06  3.5542169016202075e-05  3.6063624965767719e-05  1.9812124124470267e-05  6.4347427629914490e-06  1.1225133106746493e-05  4.2434902859289468e-05  5.5896199521301310e-05  6.7447619360393166e-05  4.2078886555254271e-05  7.7788324114409686e-06  9.6916374071290221e-06  5.5465964956105213e-05  1.0070094166509111e-04  1.1126085899995494e-04  7.3679151176132563e-05  1.4161508656195774e-05  1.6289449313412136e-05  7.9570770508157913e-05  1.0158548560672905e-04  8.8076950859474791e-05  1.0499158124263268e-04  8.9026513945549501e-05  1.1659787087014640e-05  1.2518886900757563e-05  1.2054968056021146e-05  1.6595690880839287e-06  1.0566266303935523e-06  4.6912824130261546e-06  2.7217189431461275e-06  1.5679761460809984e-05  1.0523827968950089e-05  4.9453798111734205e-06  4.9542921602542569e-06  4.5650791206596229e-06  3.6358959985531708e-05  3.6816858832391896e-05  2.1075147251378968e-05  5.8761657873028078e-06  1.1274735254699883e-05  4.5818101991152734e-05  4.6541658097305384e-05  7.1556919732545851e-05  4.5955147257941643e-05  8.5567479349835147e-06  1.0660841368441092e-05  6.0575428582564642e-05  1.0683622740215126e-04  1.1358468105356194e-04  8.6636024824069085e-06  1.0173555339773203e-05  1.6629674814957436e-05  8.4418683599270795e-05  1.1174445575035288e-04  9.0735561655917973e-05  9.5594119041559616e-05  8.7756739290935048e-05  1.2624805289049206e-05  1.3672112979377143e-05  1.6972845321392667e-06  1.6055997083181025e-06  1.1615617136261369e-06  4.8826564019159530e-06  2.8952285551666399e-06  1.6319394343977253e-05  1.1568964190281049e-05  4.7845554845263037e-06  5.0577687420952781e-06  4.3724094241885438e-06  3.6519624673913014e-05  2.2523492187054792e-05  2.2919948160202325e-05  5.3502088941896070e-06  1.1113925037277875e-05  4.9049034400853894e-05  4.9493788449634732e-05  7.4520455752012001e-05  4.9555977752321113e-05  9.3449861341959443e-06  1.1642906338240342e-05  6.5321835970314057e-05  1.1126085899995534e-04  4.5074779285743929e-05  9.2131334809664479e-06  1.0818862420299949e-05  5.4907135798843878e-05  8.7914890681652644e-05  1.2203823198893051e-04  9.6519954691439580e-05  8.7560356125751659e-05  8.4902879922373661e-05  1.3631340650647285e-05  8.8659178071632004e-07  1.0383497156257580e-06  1.5256759003241441e-06  1.2777227055062883e-06  4.9948642318209543e-06  3.1486607236879436e-06  1.6694428684706815e-05  1.2725908620873341e-05  4.5463890898137097e-06  5.0824437907342163e-06  4.3396293397182583e-06  3.5998749580057980e-05  2.3952153898823654e-05  2.5196160588221056e-05  4.9005754832966244e-06  1.0752498902426028e-05  5.1845956416870407e-05  5.3340823927077953e-05  7.6076908578980032e-05  5.2575215491934881e-05  1.0077215558958607e-05  1.2555190047192987e-05  6.9301621282353315e-05  1.1358468105356236e-04  4.7933865736333706e-05  9.9292486232891038e-06  1.1659787087014937e-05  5.8389887139854226e-05  8.9751103017623879e-05  1.3160057730705931e-04  1.0496877348309511e-04  8.1565921167751408e-05  8.0676570314882463e-05  1.6055997083181025e-06  9.1335363449587443e-07  1.1042120814534335e-06  1.4260302121709483e-06  1.3954251144277282e-06  5.0169357736260940e-06  3.4613586678882552e-06  1.6768198814088930e-05  1.3898205312429262e-05  4.2494531092621251e-06  5.4048224336967192e-06  4.4706214472169002e-06  3.4828066056768121e-05  2.5813898345881308e-05  2.7715881211899737e-05  4.5650791206596025e-06  1.0217259232612592e-05  5.3960936205713124e-05  5.7755558571630449e-05  3.4195682443620624e-05  5.4752622588605623e-05  1.0691178009218322e-05  1.3320125083042071e-05  7.2171753921450752e-05  6.9487831320041215e-05  5.1659652099330061e-05  1.0751039414363823e-05  1.2624805289049499e-05  6.2928395392854611e-05  9.0809863009484626e-05  1.3961844815901369e-04  1.1539337065434779e-04  7.8123421956148825e-05  1.2885331178635297e-06  1.5256759003241441e-06  9.7157993855933398e-07  1.1900398829824173e-06  1.314626111