<?xml version="1.0"?>
<VTKFile type="UnstructuredGrid"  version="0.1"  >
<UnstructuredGrid>
<Piece  NumberOfPoints="1089" NumberOfCells="2048">
<Points>
<DataArray  type="Float64"  NumberOfComponents="3"  format="ascii">0 0 0  0.03125 0 0  0.0625 0 0  0.09375 0 0  0.125 0 0  0.15625 0 0  0.1875 0 0  0.21875 0 0  0.25 0 0  0.28125 0 0  0.3125 0 0  0.34375 0 0  0.375 0 0  0.40625 0 0  0.4375 0 0  0.46875 0 0  0.5 0 0  0.53125 0 0  0.5625 0 0  0.59375 0 0  0.625 0 0  0.65625 0 0  0.6875 0 0  0.71875 0 0  0.75 0 0  0.78125 0 0  0.8125 0 0  0.84375 0 0  0.875 0 0  0.90625 0 0  0.9375 0 0  0.96875 0 0  1 0 0  0 0.03125 0  0.03125 0.03125 0  0.0625 0.03125 0  0.09375 0.03125 0  0.125 0.03125 0  0.15625 0.03125 0  0.1875 0.03125 0  0.21875 0.03125 0  0.25 0.03125 0  0.28125 0.03125 0  0.3125 0.03125 0  0.34375 0.03125 0  0.375 0.03125 0  0.40625 0.03125 0  0.4375 0.03125 0  0.46875 0.03125 0  0.5 0.03125 0  0.53125 0.03125 0  0.5625 0.03125 0  0.59375 0.03125 0  0.625 0.03125 0  0.65625 0.03125 0  0.6875 0.03125 0  0.71875 0.03125 0  0.75 0.03125 0  0.78125 0.03125 0  0.8125 0.03125 0  0.84375 0.03125 0  0.875 0.03125 0  0.90625 0.03125 0  0.9375 0.03125 0  0.96875 0.03125 0  1 0.03125 0  0 0.0625 0  0.03125 0.0625 0  0.0625 0.0625 0  0.09375 0.0625 0  0.125 0.0625 0  0.15625 0.0625 0  0.1875 0.0625 0  0.21875 0.0625 0  0.25 0.0625 0  0.28125 0.0625 0  0.3125 0.0625 0  0.34375 0.0625 0  0.375 0.0625 0  0.40625 0.0625 0  0.4375 0.0625 0  0.46875 0.0625 0  0.5 0.0625 0  0.53125 0.0625 0  0.5625 0.0625 0  0.59375 0.0625 0  0.625 0.0625 0  0.65625 0.0625 0  0.6875 0.0625 0  0.71875 0.0625 0  0.75 0.0625 0  0.78125 0.0625 0  0.8125 0.0625 0  0.84375 0.0625 0  0.875 0.0625 0  0.90625 0.0625 0  0.9375 0.0625 0  0.96875 0.0625 0  1 0.0625 0  0 0.09375 0  0.03125 0.09375 0  0.0625 0.09375 0  0.09375 0.09375 0  0.125 0.09375 0  0.15625 0.09375 0  0.1875 0.09375 0  0.21875 0.09375 0  0.25 0.09375 0  0.28125 0.09375 0  0.3125 0.09375 0  0.34375 0.09375 0  0.375 0.09375 0  0.40625 0.09375 0  0.4375 0.09375 0  0.46875 0.09375 0  0.5 0.09375 0  0.53125 0.09375 0  0.5625 0.09375 0  0.59375 0.09375 0  0.625 0.09375 0  0.65625 0.09375 0  0.6875 0.09375 0  0.71875 0.09375 0  0.75 0.09375 0  0.78125 0.09375 0  0.8125 0.09375 0  0.84375 0.09375 0  0.875 0.09375 0  0.90625 0.09375 0  0.9375 0.09375 0  0.96875 0.09375 0  1 0.09375 0  0 0.125 0  0.03125 0.125 0  0.0625 0.125 0  0.09375 0.125 0  0.125 0.125 0  0.15625 0.125 0  0.1875 0.125 0  0.21875 0.125 0  0.25 0.125 0  0.28125 0.125 0  0.3125 0.125 0  0.34375 0.125 0  0.375 0.125 0  0.40625 0.125 0  0.4375 0.125 0  0.46875 0.125 0  0.5 0.125 0  0.53125 0.125 0  0.5625 0.125 0  0.59375 0.125 0  0.625 0.125 0  0.65625 0.125 0  0.6875 0.125 0  0.71875 0.125 0  0.75 0.125 0  0.78125 0.125 0  0.8125 0.125 0  0.84375 0.125 0  0.875 0.125 0  0.90625 0.125 0  0.9375 0.125 0  0.96875 0.125 0  1 0.125 0  0 0.15625 0  0.03125 0.15625 0  0.0625 0.15625 0  0.09375 0.15625 0  0.125 0.15625 0  0.15625 0.15625 0  0.1875 0.15625 0  0.21875 0.15625 0  0.25 0.15625 0  0.28125 0.15625 0  0.3125 0.15625 0  0.34375 0.15625 0  0.375 0.15625 0  0.40625 0.15625 0  0.4375 0.15625 0  0.46875 0.15625 0  0.5 0.15625 0  0.53125 0.15625 0  0.5625 0.15625 0  0.59375 0.15625 0  0.625 0.15625 0  0.65625 0.15625 0  0.6875 0.15625 0  0.71875 0.15625 0  0.75 0.15625 0  0.78125 0.15625 0  0.8125 0.15625 0  0.84375 0.15625 0  0.875 0.15625 0  0.90625 0.15625 0  0.9375 0.15625 0  0.96875 0.15625 0  1 0.15625 0  0 0.1875 0  0.03125 0.1875 0  0.0625 0.1875 0  0.09375 0.1875 0  0.125 0.1875 0  0.15625 0.1875 0  0.1875 0.1875 0  0.21875 0.1875 0  0.25 0.1875 0  0.28125 0.1875 0  0.3125 0.1875 0  0.34375 0.1875 0  0.375 0.1875 0  0.40625 0.1875 0  0.4375 0.1875 0  0.46875 0.1875 0  0.5 0.1875 0  0.53125 0.1875 0  0.5625 0.1875 0  0.59375 0.1875 0  0.625 0.1875 0  0.65625 0.1875 0  0.6875 0.1875 0  0.71875 0.1875 0  0.75 0.1875 0  0.78125 0.1875 0  0.8125 0.1875 0  0.84375 0.1875 0  0.875 0.1875 0  0.90625 0.1875 0  0.9375 0.1875 0  0.96875 0.1875 0  1 0.1875 0  0 0.21875 0  0.03125 0.21875 0  0.0625 0.21875 0  0.09375 0.21875 0  0.125 0.21875 0  0.15625 0.21875 0  0.1875 0.21875 0  0.21875 0.21875 0  0.25 0.21875 0  0.28125 0.21875 0  0.3125 0.21875 0  0.34375 0.21875 0  0.375 0.21875 0  0.40625 0.21875 0  0.4375 0.21875 0  0.46875 0.21875 0  0.5 0.21875 0  0.53125 0.21875 0  0.5625 0.21875 0  0.59375 0.21875 0  0.625 0.21875 0  0.65625 0.21875 0  0.6875 0.21875 0  0.71875 0.21875 0  0.75 0.21875 0  0.78125 0.21875 0  0.8125 0.21875 0  0.84375 0.21875 0  0.875 0.21875 0  0.90625 0.21875 0  0.9375 0.21875 0  0.96875 0.21875 0  1 0.21875 0  0 0.25 0  0.03125 0.25 0  0.0625 0.25 0  0.09375 0.25 0  0.125 0.25 0  0.15625 0.25 0  0.1875 0.25 0  0.21875 0.25 0  0.25 0.25 0  0.28125 0.25 0  0.3125 0.25 0  0.34375 0.25 0  0.375 0.25 0  0.40625 0.25 0  0.4375 0.25 0  0.46875 0.25 0  0.5 0.25 0  0.53125 0.25 0  0.5625 0.25 0  0.59375 0.25 0  0.625 0.25 0  0.65625 0.25 0  0.6875 0.25 0  0.71875 0.25 0  0.75 0.25 0  0.78125 0.25 0  0.8125 0.25 0  0.84375 0.25 0  0.875 0.25 0  0.90625 0.25 0  0.9375 0.25 0  0.96875 0.25 0  1 0.25 0  0 0.28125 0  0.03125 0.28125 0  0.0625 0.28125 0  0.09375 0.28125 0  0.125 0.28125 0  0.15625 0.28125 0  0.1875 0.28125 0  0.21875 0.28125 0  0.25 0.28125 0  0.28125 0.28125 0  0.3125 0.28125 0  0.34375 0.28125 0  0.375 0.28125 0  0.40625 0.28125 0  0.4375 0.28125 0  0.46875 0.28125 0  0.5 0.28125 0  0.53125 0.28125 0  0.5625 0.28125 0  0.59375 0.28125 0  0.625 0.28125 0  0.65625 0.28125 0  0.6875 0.28125 0  0.71875 0.28125 0  0.75 0.28125 0  0.78125 0.28125 0  0.8125 0.28125 0  0.84375 0.28125 0  0.875 0.28125 0  0.90625 0.28125 0  0.9375 0.28125 0  0.96875 0.28125 0  1 0.28125 0  0 0.3125 0  0.03125 0.3125 0  0.0625 0.3125 0  0.09375 0.3125 0  0.125 0.3125 0  0.15625 0.3125 0  0.1875 0.3125 0  0.21875 0.3125 0  0.25 0.3125 0  0.28125 0.3125 0  0.3125 0.3125 0  0.34375 0.3125 0  0.375 0.3125 0  0.40625 0.3125 0  0.4375 0.3125 0  0.46875 0.3125 0  0.5 0.3125 0  0.53125 0.3125 0  0.5625 0.3125 0  0.59375 0.3125 0  0.625 0.3125 0  0.65625 0.3125 0  0.6875 0.3125 0  0.71875 0.3125 0  0.75 0.3125 0  0.78125 0.3125 0  0.8125 0.3125 0  0.84375 0.3125 0  0.875 0.3125 0  0.90625 0.3125 0  0.9375 0.3125 0  0.96875 0.3125 0  1 0.3125 0  0 0.34375 0  0.03125 0.34375 0  0.0625 0.34375 0  0.09375 0.34375 0  0.125 0.34375 0  0.15625 0.34375 0  0.1875 0.34375 0  0.21875 0.34375 0  0.25 0.34375 0  0.28125 0.34375 0  0.3125 0.34375 0  0.34375 0.34375 0  0.375 0.34375 0  0.40625 0.34375 0  0.4375 0.34375 0  0.46875 0.34375 0  0.5 0.34375 0  0.53125 0.34375 0  0.5625 0.34375 0  0.59375 0.34375 0  0.625 0.34375 0  0.65625 0.34375 0  0.6875 0.34375 0  0.71875 0.34375 0  0.75 0.34375 0  0.78125 0.34375 0  0.8125 0.34375 0  0.84375 0.34375 0  0.875 0.34375 0  0.90625 0.34375 0  0.9375 0.34375 0  0.96875 0.34375 0  1 0.34375 0  0 0.375 0  0.03125 0.375 0  0.0625 0.375 0  0.09375 0.375 0  0.125 0.375 0  0.15625 0.375 0  0.1875 0.375 0  0.21875 0.375 0  0.25 0.375 0  0.28125 0.375 0  0.3125 0.375 0  0.34375 0.375 0  0.375 0.375 0  0.40625 0.375 0  0.4375 0.375 0  0.46875 0.375 0  0.5 0.375 0  0.53125 0.375 0  0.5625 0.375 0  0.59375 0.375 0  0.625 0.375 0  0.65625 0.375 0  0.6875 0.375 0  0.71875 0.375 0  0.75 0.375 0  0.78125 0.375 0  0.8125 0.375 0  0.84375 0.375 0  0.875 0.375 0  0.90625 0.375 0  0.9375 0.375 0  0.96875 0.375 0  1 0.375 0  0 0.40625 0  0.03125 0.40625 0  0.0625 0.40625 0  0.09375 0.40625 0  0.125 0.40625 0  0.15625 0.40625 0  0.1875 0.40625 0  0.21875 0.40625 0  0.25 0.40625 0  0.28125 0.40625 0  0.3125 0.40625 0  0.34375 0.40625 0  0.375 0.40625 0  0.40625 0.40625 0  0.4375 0.40625 0  0.46875 0.40625 0  0.5 0.40625 0  0.53125 0.40625 0  0.5625 0.40625 0  0.59375 0.40625 0  0.625 0.40625 0  0.65625 0.40625 0  0.6875 0.40625 0  0.71875 0.40625 0  0.75 0.40625 0  0.78125 0.40625 0  0.8125 0.40625 0  0.84375 0.40625 0  0.875 0.40625 0  0.90625 0.40625 0  0.9375 0.40625 0  0.96875 0.40625 0  1 0.40625 0  0 0.4375 0  0.03125 0.4375 0  0.0625 0.4375 0  0.09375 0.4375 0  0.125 0.4375 0  0.15625 0.4375 0  0.1875 0.4375 0  0.21875 0.4375 0  0.25 0.4375 0  0.28125 0.4375 0  0.3125 0.4375 0  0.34375 0.4375 0  0.375 0.4375 0  0.40625 0.4375 0  0.4375 0.4375 0  0.46875 0.4375 0  0.5 0.4375 0  0.53125 0.4375 0  0.5625 0.4375 0  0.59375 0.4375 0  0.625 0.4375 0  0.65625 0.4375 0  0.6875 0.4375 0  0.71875 0.4375 0  0.75 0.4375 0  0.78125 0.4375 0  0.8125 0.4375 0  0.84375 0.4375 0  0.875 0.4375 0  0.90625 0.4375 0  0.9375 0.4375 0  0.96875 0.4375 0  1 0.4375 0  0 0.46875 0  0.03125 0.46875 0  0.0625 0.46875 0  0.09375 0.46875 0  0.125 0.46875 0  0.15625 0.46875 0  0.1875 0.46875 0  0.21875 0.46875 0  0.25 0.46875 0  0.28125 0.46875 0  0.3125 0.46875 0  0.34375 0.46875 0  0.375 0.46875 0  0.40625 0.46875 0  0.4375 0.46875 0  0.46875 0.46875 0  0.5 0.46875 0  0.53125 0.46875 0  0.5625 0.46875 0  0.59375 0.46875 0  0.625 0.46875 0  0.65625 0.46875 0  0.6875 0.46875 0  0.71875 0.46875 0  0.75 0.46875 0  0.78125 0.46875 0  0.8125 0.46875 0  0.84375 0.46875 0  0.875 0.46875 0  0.90625 0.46875 0  0.9375 0.46875 0  0.96875 0.46875 0  1 0.46875 0  0 0.5 0  0.03125 0.5 0  0.0625 0.5 0  0.09375 0.5 0  0.125 0.5 0  0.15625 0.5 0  0.1875 0.5 0  0.21875 0.5 0  0.25 0.5 0  0.28125 0.5 0  0.3125 0.5 0  0.34375 0.5 0  0.375 0.5 0  0.40625 0.5 0  0.4375 0.5 0  0.46875 0.5 0  0.5 0.5 0  0.53125 0.5 0  0.5625 0.5 0  0.59375 0.5 0  0.625 0.5 0  0.65625 0.5 0  0.6875 0.5 0  0.71875 0.5 0  0.75 0.5 0  0.78125 0.5 0  0.8125 0.5 0  0.84375 0.5 0  0.875 0.5 0  0.90625 0.5 0  0.9375 0.5 0  0.96875 0.5 0  1 0.5 0  0 0.53125 0  0.03125 0.53125 0  0.0625 0.53125 0  0.09375 0.53125 0  0.125 0.53125 0  0.15625 0.53125 0  0.1875 0.53125 0  0.21875 0.53125 0  0.25 0.53125 0  0.28125 0.53125 0  0.3125 0.53125 0  0.34375 0.53125 0  0.375 0.53125 0  0.40625 0.53125 0  0.4375 0.53125 0  0.46875 0.53125 0  0.5 0.53125 0  0.53125 0.53125 0  0.5625 0.53125 0  0.59375 0.53125 0  0.625 0.53125 0  0.65625 0.53125 0  0.6875 0.53125 0  0.71875 0.53125 0  0.75 0.53125 0  0.78125 0.531
[...]
<PointData  Scalars="theta_dt"> 
<DataArray  type="Float64"  Name="theta_dt"  format="ascii">-8.7952239334195192e-01  -2.2424336584543522e-01  -7.3525621772361063e-02  -5.7585248210163920e-01  -7.6244630918977208e-01  -6.8896247078484707e-01  -7.8005229322295547e-02  -5.0071613835430739e-01  -1.2256912617145159e+00  -1.4214539699690307e+00  -1.0287511312122042e+00  -3.1822613353347201e-01  -5.0528889564317801e-02  -4.8870243978848754e-01  -7.5142434476451525e-01  -1.4651191639680303e+00  -9.3849866755766143e-01  -1.0287884477209956e+00  -1.1480289371767334e+00  -9.6361133491989148e-01  -5.3994979934820408e-01  -9.4042716933839088e-02  -9.5173198474503964e-02  -4.8175204627707519e-01  -6.8686401991780166e-01  -8.0418498711136377e-01  -1.3546668325016307e+00  -9.9207672105158828e-01  -1.6344615935471898e+00  -1.0725744182222039e+00  -1.2686946276857400e+00  -1.6754909398344648e+00  -1.9168537687877512e+00  -3.9399687473655876e-01  -9.3310800144125083e-01  -2.3853888283994162e-01  -7.8005229322295505e-02  -5.7153529878818055e-01  -8.3816592917077337e-01  -7.4294634902944079e-01  -8.1235822641116090e-02  -5.1117422051692263e-01  -1.2512913551389857e+00  -1.4803236090725767e+00  -1.1093592603430737e+00  -3.4982962037411774e-01  -5.0150072965180280e-02  -5.1847702837647314e-01  -7.9932765485874213e-01  -1.5543827255708780e+00  -9.3146271492532151e-01  -1.1309588817087459e+00  -1.2379831175477183e+00  -1.0035193816954449e+00  -5.5122732554065013e-01  -9.6006916577417833e-02  -9.9114804720569244e-02  -5.1949988438599193e-01  -7.5507745598527642e-01  -7.9815598816597355e-01  -1.4372009971130921e+00  -1.0553216227331956e+00  -1.7340424786595978e+00  -1.0645332956696161e+00  -1.3946904832921323e+00  -1.8067745767978927e+00  -6.5302476307259452e-02  -4.1911417975623610e-01  -9.7175275002264494e-01  -2.5941924692964174e-01  -8.1235822641116048e-02  -5.8878714391995557e-01  -9.2198600050274171e-01  -7.8821095195401714e-01  -8.2932534295988444e-02  -5.1419220843402014e-01  -7.9436337381420674e-01  -1.5112420172186019e+00  -1.1769478641308571e+00  -3.8481403421542471e-01  -5.1663857492534812e-02  -5.3994979934820364e-01  -8.6929634198307892e-01  -1.6187576205842826e+00  -9.5957900194728918e-01  -1.2440594633944468e+00  -1.3134082331248136e+00  -1.0244791378160307e+00  -5.2755439018154576e-02  -5.5600744073683969e-02  -1.0118494125482613e-01  -5.5115083201742510e-01  -8.3058833517892572e-01  -8.2224839947991013e-01  -1.4967228007077225e+00  -1.1476985947893101e+00  -1.8058579978854037e+00  -1.0966663303106077e+00  -1.5341653196305891e+00  -4.6618860966170639e-01  -6.6666400116242627e-02  -4.5580109873681279e-01  -9.9204902035035103e-01  -2.8518253879230931e-01  -8.2932534295988403e-02  -6.2632233070383703e-01  -1.0069183358078539e+00  -8.2085477669918749e-01  -4.9401479939022719e-02  -4.9249066633403127e-01  -7.6083717501780801e-01  -7.9436337381420696e-01  -1.2256912617145173e+00  -4.2026267938604123e-01  -5.4957428965660825e-02  -5.5122732554064968e-01  -9.5562738965485605e-01  -1.6525673960252549e+00  -1.0207521736850176e+00  -1.3586608515141161e+00  -1.3678031486924054e+00  -3.0289733900838867e-01  -5.0528889564317815e-02  -5.3254108188281184e-02  -3.2198556787190630e-01  -5.7397679139280444e-01  -9.0710121817873890e-01  -8.7466674382715270e-01  -1.5279837264607987e+00  -1.2616781634523484e+00  -1.8435755984763753e+00  -1.1665788207120604e+00  -4.2922099012547449e-01  -5.0913339113303280e-01  -4.1301214922730409e-02  -5.0106734970725819e-01  -5.0907761572468568e-01  -3.1370197618801970e-01  -2.5617025047864583e-01  -6.8114709615467872e-01  -1.0858157491612668e+00  -8.3799935431657768e-01  -4.7316484719115502e-02  -4.8879844905127912e-01  -7.5513315591857966e-01  -7.6083717501780801e-01  -1.2512913551389870e+00  -4.5319249817410678e-01  -5.9768095941940817e-02  -5.6294742719752955e-01  -1.0511940945039773e+00  -9.7985349869871052e-01  -1.1101031288758203e+00  -1.4651191639680305e+00  -1.3963714264362057e+00  -2.9011352150464931e-01  -5.0150072965180301e-02  -5.2854860543459933e-02  -3.0839612944373240e-01  -5.8596501382867239e-01  -9.7817742884940129e-01  -9.5123019482863125e-01  -1.0130378469383619e+00  -1.3878512158015277e+00  -1.1198372812236181e+00  -1.8972722258919839e-01  -4.6679260294624503e-01  -5.4902670341442983e-01  -3.9558092332141109e-02  -5.5117616412319892e-01  -4.8759193560623870e-01  -3.4259985686402689e-01  -2.4535855519361227e-01  -7.4879277644763320e-01  -1.1519699456240970e+00  -2.5617025047864589e-01  -4.6961751615360654e-02  -5.0355287482614264e-01  -7.7792691911640455e-01  -7.5513315591857999e-01  -5.1419220843402080e-01  -4.8080361505360419e-01  -6.5703749977070208e-02  -5.3918816540588510e-01  -1.1480289371767327e+00  -9.3849866755766143e-01  -1.2203490387124376e+00  -1.5543827255708780e+00  -5.6294742719752922e-01  -2.8793853174081696e-01  -5.1663857492534847e-02  -5.4450289330606937e-02  -3.0608407442035102e-01  -6.0627350337105945e-01  -1.0377736742101769e+00  -1.0456982091645104e+00  -9.7028246651132388e-01  -1.5156985418452964e+00  -3.0277195459467346e-02  -1.9545415611076855e-01  -5.1315043572609342e-01  -5.8247659620616155e-01  -3.9261524128587869e-02  -6.0194990554440420e-01  -4.8393644425454124e-01  -3.6944437996046509e-01  -2.4351909475327485e-01  -8.2367516160590126e-01  -1.1996788805525349e+00  -2.4535855519361241e-01  -4.8379296371918783e-02  -5.3565437603475108e-01  -8.2751976861179610e-01  -7.7792691911640477e-01  -4.9249066633403155e-01  -5.0071613835430773e-01  -7.2274397647400110e-02  -5.3514585557332328e-01  -1.2379831175477176e+00  -9.3146271492532151e-01  -1.3423890070704623e+00  -1.6187576205842831e+00  -5.3918816540588510e-01  -2.9662998258837753e-01  -5.4957428965660866e-02  -5.7921495863503973e-02  -3.1532325012900597e-01  -5.8068565948368323e-01  -1.0807531606815153e+00  -1.1502723697613226e+00  -9.6300822978584222e-01  -2.6336807980246391e-01  -3.0050206417866130e-02  -2.0791436067376248e-01  -5.6446760888910341e-01  -6.0659991481468878e-01  -4.0446636816010642e-02  -6.4911588596890524e-01  -4.9854410997108228e-01  -3.9195307548534752e-01  -2.5086974084323843e-01  -8.9955121066723120e-01  -1.2247356728956147e+00  -2.4351909475327491e-01  -5.1463477038131825e-02  -5.8254257415443256e-01  -8.9995623621960630e-01  -8.2751976861179621e-01  -4.8879844905127956e-01  -5.1117422051692296e-01  -7.8932235588124650e-02  -5.5129928204205980e-01  -1.3134082331248129e+00  -9.5957900194728918e-01  -1.4660484044975790e+00  -1.6525673960252554e+00  -5.3514585557332306e-01  -3.1554014718203205e-01  -5.9768095941940838e-02  -6.2991620733089795e-02  -3.3542511073026576e-01  -5.7633224169456809e-01  -1.1033260407749379e+00  -1.2562341940704815e+00  -2.6139360141648710e-01  -2.6139360141648710e-01  -3.0957274639895643e-02  -2.2611402480675155e-01  -6.1646574356891759e-01  -6.1926951194374802e-01  -4.3025110349860715e-02  -6.8866379258262067e-01  -5.3032630236608547e-01  -4.0818584600541596e-01  -2.6686268953142345e-01  -9.7003583804630611e-01  -6.0122735260778537e-01  -2.5086974084323843e-01  -5.5968302939404899e-02  -6.4039570008090207e-01  -9.8933216129752477e-01  -8.9995623621960641e-01  -5.0355287482614308e-01  -4.9401479939022760e-02  -8.5116996552983631e-02  -5.8644461722635144e-01  -1.3678031486924047e+00  -1.0207521736850176e+00  -1.5809211035560933e+00  -7.6730083894159895e-01  -5.5129928204205947e-01  -3.4316077271543527e-01  -6.5703749977070222e-02  -6.9247407568710423e-02  -3.6478635512569363e-01  -5.9372888298556981e-01  -8.3962130204477126e-01  -3.2930801232531899e-02  -2.6928379112066753e-01  -2.6928379112066758e-01  -3.2930801232531899e-02  -2.4856972801414995e-01  -6.6476911719807441e-01  -1.9958381572720230e-01  -4.6791288670178476e-02  -7.1718486311288998e-01  -5.7674811061769204e-01  -4.1671131740158773e-01  -2.9022236177031635e-01  -1.0291360504494427e+00  -5.7585248210163886e-01  -2.6686268953142345e-01  -6.1526594163946013e-02  -7.0443792775123071e-01  -1.0882694831867721e+00  -9.8933216129752510e-01  -5.3565437603475152e-01  -4.7316484719115565e-02  -9.0302817919676509e-02  -6.3777870993419472e-01  -1.3963714264362050e+00  -1.1101031288758203e+00  -1.6772399913210483e+00  -7.3491681758436966e-01  -5.8644461722635099e-01  -3.7724055379538013e-01  -7.2274397647400138e-02  -7.6172435704494487e-02  -4.0101380334263692e-01  -6.3157910568825582e-01  -1.8538720785624715e-01  -3.5813380002560749e-02  -2.8645063571291285e-01  -2.8645063571291296e-01  -3.5813380002560749e-02  -2.7342773238773144e-01  -7.0527070949447790e-01  -1.9116035751753543e-01  -5.1438197644388478e-02  -7.3216416505604265e-01  -6.3402578018519240e-01  -4.1301214922730423e-02  -3.1904475447963332e-01  -1.0717578089856881e+00  -5.7153529878818032e-01  -2.9022236177031641e-01  -6.7679508917635883e-02  -7.6932997410419290e-01  -1.1885196698468088e+00  -1.0882694831867723e+00  -5.8254257415443333e-01  -4.6961751615360696e-02  -9.4042716933839046e-02  -7.0111741453033738e-01  -9.0807955918571015e-01  -1.2203490387124376e+00  -1.7467030306210518e+00  -7.2940712418151132e-01  -6.3777870993419450e-01  -4.1496617473504671e-01  -7.8932235588124691e-02  -8.3189356619490562e-02  -4.4111684789676020e-01  -3.6903510966274178e-01  -2.0246487334177488e-01  -3.9370057359830408e-02  -3.1152492756924305e-01  -3.1152492756924305e-01  -3.9370057359830408e-02  -2.9861559406481603e-01  -7.3447955692493427e-01  -1.8972722258919833e-01  -5.6582230878960665e-02  -5.0907761572468602e-01  -6.9743098943058246e-01  -3.9558092332141137e-02  -3.5095055397333313e-01  -1.0941428099198214e+00  -5.8878714391995535e-01  -3.1904475447963337e-01  -7.3914070767320844e-02  -8.2961107418304914e-01  -1.2816465147317342e+00  -1.1885196698468092e+00  -6.4039570008090285e-01  -4.8379296371918838e-02  -9.6006916577417792e-02  -7.7123206564262881e-01  -8.6975395552900536e-01  -1.3423890070704623e+00  -1.7831851058103243e+00  -7.5142434476451569e-01  -7.0111741453033738e-01  -4.5319240189430859e-01  -8.5116996552983673e-02  -8.9707685685915334e-02  -1.3252020908359141e-01  -3.7674286901403270e-01  -2.1832907427399484e-01  -4.3307226482786142e-02  -3.4246290817960068e-01  -3.4246290817960084e-01  -4.3307226482786142e-02  -3.2201371595898570e-01  -7.4982008015697543e-01  -1.9545415611076844e-01  -6.1794523693279695e-02  -4.8759193560623898e-01  -7.6167756433974099e-01  -3.9261524128587910e-02  -3.8327973262607284e-01  -6.7298763889268232e-01  -6.2632233070383658e-01  -3.5095055397333319e-01  -7.9705631797226964e-02  -8.8015579508218755e-01  -1.3597318578453861e+00  -1.2816465147317342e+00  -7.0443792775123126e-01  -5.1463477038131887e-02  -3.0289733900838833e-01  -8.4227711444108888e-01  -8.6323338406264627e-01  -1.4660484044975790e+00  -9.0807955918571048e-01  -7.9932765485874269e-01  -7.7123206564262836e-01  -4.8870243978848799e-01  -9.0302817919676537e-02  -3.3407511520483789e-02  -1.4096837384390731e-01  -2.0701878739921273e-01  -2.3163094844944909e-01  -4.7296640507255933e-02  -3.7671062022936946e-01  -3.7671062022936952e-01  -4.7296640507255933e-02  -3.4163266019122007e-01  -4.1202330960614864e-01  -2.0791436067376232e-01  -6.6636453674517301e-02  -4.8393644425454146e-01  -8.2135905736520942e-01  -4.0446636816010670e-02  -4.1331174060487597e-01  -6.4458411713827590e-01  -6.8114709615467839e-01  -3.8327973262607290e-01  -8.4561761420674397e-02  -9.1660752345754393e-01  -1.4160452703371718e+00  -1.3597318578453863e+00  -7.6932997410419379e-01  -5.5968302939404954e-02  -2.9011352150464909e-01  -9.0827401140181641e-01  -8.8929016250835680e-01  -1.5809211035560933e+00  -8.6975395552900547e-01  -8.6929634198307904e-01  -8.4227711444108833e-01  -5.1847702837647358e-01  -9.8987965656114146e-02  -3.5442890987181973e-02  -1.5330795947435058e-01  -1.9828153534338117e-01  -2.4122396421254705e-01  -5.1002584141041155e-02  -4.1141278782505036e-01  -4.1141278782505059e-01  -5.1002584141041155e-02  -3.5578140635982070e-01  -3.9463381779174278e-01  -2.2611402480675144e-01  -7.0696333125865721e-02  -4.9854410997108273e-01  -8.7140101751308463e-01  -4.3025110349860736e-02  -4.3849309030392930e-01  -6.3975165069743734e-01  -7.4879277644763309e-01  -4.1331174060487602e-01  -8.8063894083404023e-02  -9.3575201682797171e-01  -1.4456211450669969e+00  -1.4160452703371720e+00  -8.2961107418305002e-01  -6.1526594163946062e-02  -2.8793853174081674e-01  -9.6361133491989204e-01  -9.4598241997272381e-01  -1.6772399913210483e+00  -8.6323338406264638e-01  -9.5562738965485639e-01  -9.0827401140181585e-01  -1.8018587240412012e-01  -1.0529844953577540e-01  -3.6910761382765153e-02  -1.6853318948929613e-01  -1.9679501273150105e-01  -2.4626222809918352e-01  -5.4109957536559415e-02  -4.4364917048449470e-01  -4.4364917048449493e-01  -5.4109957536559415e-02  -3.6321234555796766e-01  -3.9167523623474604e-01  -2.4856972801414987e-01  -7.3624227876586665e-02  -5.3032630236608591e-01  -9.0749016601824217e-01  -4.6791288670178510e-02  -4.5665331956281502e-01  -6.5906261263457599e-01  -8.2367516160590060e-01  -4.3849309030392936e-01  -8.9903218541591154e-02  -6.8757988625483923e-01  -8.3042179587925202e-01  -1.4456211450669973e+00  -8.8015579508218855e-01  -6.7679508917635939e-02  -2.9662998258837742e-01  -1.0035193816954455e+00  -1.0287884477209954e+00  -1.7467030306210518e+00  -8.8929016250835691e-01  -1.0511940945039779e+00  -2.8366928696063203e-02  -1.8394927948010975e-01  -1.1451568883115346e-01  -3.7681688751901594e-02  -1.8538720785624729e-01  -2.0273528814327033e-01  -2.6285097164165171e-02  -5.6350926107743518e-02  -4.7067885246090152e-01  -4.7067885246090163e-01  -5.6350926107743518e-02  -3.4028626413396496e-01  -4.0349798897075390e-01  -2.7342773238773133e-01  -7.5161961864596491e-02  -5.7674811061769227e-01  -9.2644423198698977e-01  -5.1438197644388506e-02  -4.6619109470127001e-01  -7.0107786130799954e-01  -8.9955121066723054e-01  -4.5665331956281507e-01  -2.8088830867083886e-01  -6.5856049699939112e-01  -7.9537374717601272e-01  -6.8757988625484023e-01  -9.1660752345754481e-01  -7.3914070767320927e-02  -3.1554014718203188e-01  -1.0244791378160314e+00  -1.1309588817087457e+00  -1.7831851058103243e+00  -9.4598241997272370e-01  -1.5551656551566324e-02  -3.0980058936952489e-02  -1.3708897753535307e-01  -1.2588840365139045e-01  -2.6285097164165157e-02  -2.0246487334177499e-01  -2.1565966495197339e-01  -2.5175731574111460e-02  -5.7527885606415065e-02  -4.9017205784316797e-01  -4.9017205784316820e-01  -5.7527885606415065e-02  -3.2592444268660864e-01  -4.2922099012547466e-01  -2.9861559406481586e-01  -2.2898129923407218e-01  -6.3402578018519273e-01  -4.0232145076490700e-01  -5.6582230878960707e-02  -4.6047748860106269e-01  -7.6244630918977208e-01  -9.7003583804630567e-01  -4.6619109470127013e-01  -2.6903338485824441e-01  -6.5362324921993853e-01  -7.8941080636044214e-01  -6.5856049699939201e-01  -9.3575201682797271e-01  -7.9705631797227033e-02  -3.4316077271543499e-01  -7.6730083894159828e-01  -1.2440594633944466e+00  -9.7985349869871052e-01  -6.2623932250731332e-02  -1.6912961874743181e-02  -3.3407511520483789e-02  -1.3130312125703938e-01  -1.3847776645735252e-01  -2.5175731574111449e-02  -2.1832907427399498e-01  -2.3453730984595678e-01  -2.4986988360121684e-02  -1.6826211614493902e-01  -5.0040991371014765e-01  -5.0040991371014787e-01  -3.6632935743293953e-02  -3.2348097737361831e-01  -4.6679260294624514e-01  -3.2201371595898554e-01  -2.1931711680592456e-01  -6.9743098943058279e-01  -3.8534142703391028e-01  -6.1794523693279729e-02  -4.4104298251352919e-01  -8.3816592917077337e-01  -1.0291360504494420e+00  -4.5571115203403227e-02  -2.6701643351050658e-01  -6.7335292662390411e-01  -8.1323924356380639e-01  -6.5362324921993942e-01  -2.8088830867083886e-01  -8.4561761420674425e-02  -3.7724055379537985e-01  -7.3491681758436933e-01  -1.3586608515141156e+00  -6.3096972141546914e-02  -6.4514241358538185e-02  -1.8592612009412472e-02  -3.5442890987181973e-02  -1.3031873782254055e-01  -1.5123418584619980e-01  -2.4986988360121674e-02  -2.3163094844944923e-01  -2.5782954138915121e-01  -2.5741222883190116e-02  -1.6116059391753415e-01  -3.1100796703699768e-01  -1.6826211614493902e-01  -3.5086838419687197e-02  -3.3324528018493615e-01  -5.1315043572609365e-01  -3.4163266019121991e-01  -2.1767288980949875e-01  -7.6167756433974143e-01  -3.8245251080886689e-01  -6.6636453674517357e-02  -4.3773647005798522e-01  -9.2198600050274171e-01  -1.0717578089856876e+00  -4.3647780973695607e-02  -2.7507634891438315e-01  -7.1627918296848525e-01  -8.6508325412409715e-01  -6.7335292662390500e-01  -2.6903338485824474e-01  -8.8063894083404093e-02  -4.1496617473504638e-01  -7.2940712418151099e-01  -1.4298484321879246e-02  -6.2623932250731332e-02  -6.8627024941907921e-02  -2.0451950370276632e-02  -3.6910761382765153e-02  -1.3425242081193733e-01  -1.6308418961467958e-01  -2.5741222883190102e-02  -2.4122396421254719e-01  -2.8361356552874856e-01  -2.7382226120002316e-02  -1.5995236811583480e-01  -2.9788183953179759e-01  -1.6116059391753415e-01  -3.4823791340694576e-02  -3.5448967039582185e-01  -5.6446760888910363e-01  -3.5578140635982053e-01  -2.2424336584543511e-01  -8.2135905736521009e-01  -3.9399687473655887e-01  -7.0696333125865762e-02  -4.5094958533884694e-01  -1.0069183358078539e+00  -1.0941428099198209e+00  -4.3320552251851073e-02  -2.9261246912853861e-01  -7.7897826980998053e-01  -9.4080781985929418e-01  -7.1627918296848581e-01  -2.6701643351050669e-01  -8.9903218541591223e-02  -4.5319240189430821e-01  -8.5652940442536140e-03  -1.4191288156470912e-02  -6.4514241358538185e-02  -7.4634252149983052e-02  -2.2335961521795945e-02  -3.7681688751901594e-02  -1.4281101408864350e-01  -1.7302022482883506e-01  -2.7382226120002306e-02  -2.4626222809918366e-01  -3.0973973494068285e-01  -2.9779113554726261e-02  -1.6478054493893898e-01  -2.9564861045494178e-01  -1.5995236811583480e-01  -3.5874950659086156e-02  -3.8551972007065455e-01  -6.1646574356891770e-01  -3.6321234555796750e-01  -2.3853888283994162e-01  -8.7140101751308519e-01  -4.1911417975623655e-01  -7.3624227876586720e-02  -4.7969762627451779e-01  -1.0858157491612666e+00  -4.6047748860106291e-01  -4.4628187073456164e-02  -3.1822613353347184e-01  -8.5633970215286859e-01  -1.0342407734145440e+00  -7.7897826980998131e-01  -2.7507634891438332e-01  -5.2755439018154555e-02  -3.1322059052998161e-02  -8.8238382263415519e-03  -1.4619653484062982e-02  -6.8627024941907921e-02  -8.2046285157747714e-02  -2.4086103043866051e-02  -1.0107943616979986e-01  -1.5531189417447430e-01  -1.8018587240412012e-01  -2.9779113554726254e-02  -2.0701878739921259e-01  -3.3400949250745210e-01  -3.2736519387185643e-02  -1.7528530645844947e-01  -3.0457279073183380e-01  -1.6478054493893898e-01  -3.8161979151057436e-02  -4.2380622804779028e-01  -6.6476911719807452e-01  -3.6632935743293960e-02  -2.5941924692964158e-01  -9.0749016601824273e-01  -4.5580109873681324e-01  -7.5161961864596546e-02  -5.2168768244618857e-01  -1.1519699456240968e+00  -4.4104298251352947e-01  -4.7473234481379738e-02  -3.4982962037411747e-01  -9.4197722620477420e-01  -1.1376691428876426e+00  -8.5633970215286970e-01  -2.9261246912853867e-01  -1.2343979402604420e-02  -3.4063817500422977e-02  -9.3863580085695279e-03  -1.5551656551566324e-02  -7.4634252149983052e-02  -9.0251254168178849e-02  -2.5553568213733686e-02  -9.6813366782706911e-02  -1.7073613777520441e-01  -1.8394927948010975e-01  -3.2736519387185622e-02  -1.9828153534338111e-01  -3.5435928905889857e-01  -3.6010307183486273e-02  -1.9062880507323468e-01  -3.2398930943041765e-01  -1.7528530645844947e-01  -4.1502466075330861e-02  -4.6618860966170628e-01  -7.0527070949447812e-01  -3.5086838419687204e-02  -2.8518253879230926e-01  -9.2644423198699044e-01  -5.0106734970725864e-01  -4.5571115203403213e-02  -5.7349722311479268e-01  -1.1996788805525347e+00  -4.3773647005798544e-01  -5.1628776792492316e-02  -3.8481403421542448e-01  -1.0287511312122033e+00  -1.2424699718127299e+00  -9.4197722620477553e-01  -5.3685840888060563e-03  -1.3481093195058675e-02  -3.7446743334210712e-02  -1.0207987465209145e-02  -1.6912