<?xml version="1.0"?>
<VTKFile type="UnstructuredGrid"  version="0.1"  >
<UnstructuredGrid>
<Piece  NumberOfPoints="1089" NumberOfCells="2048">
<Points>
<DataArray  type="Float64"  NumberOfComponents="3"  format="ascii">0 0 0  0.03125 0 0  0.0625 0 0  0.09375 0 0  0.125 0 0  0.15625 0 0  0.1875 0 0  0.21875 0 0  0.25 0 0  0.28125 0 0  0.3125 0 0  0.34375 0 0  0.375 0 0  0.40625 0 0  0.4375 0 0  0.46875 0 0  0.5 0 0  0.53125 0 0  0.5625 0 0  0.59375 0 0  0.625 0 0  0.65625 0 0  0.6875 0 0  0.71875 0 0  0.75 0 0  0.78125 0 0  0.8125 0 0  0.84375 0 0  0.875 0 0  0.90625 0 0  0.9375 0 0  0.96875 0 0  1 0 0  0 0.03125 0  0.03125 0.03125 0  0.0625 0.03125 0  0.09375 0.03125 0  0.125 0.03125 0  0.15625 0.03125 0  0.1875 0.03125 0  0.21875 0.03125 0  0.25 0.03125 0  0.28125 0.03125 0  0.3125 0.03125 0  0.34375 0.03125 0  0.375 0.03125 0  0.40625 0.03125 0  0.4375 0.03125 0  0.46875 0.03125 0  0.5 0.03125 0  0.53125 0.03125 0  0.5625 0.03125 0  0.59375 0.03125 0  0.625 0.03125 0  0.65625 0.03125 0  0.6875 0.03125 0  0.71875 0.03125 0  0.75 0.03125 0  0.78125 0.03125 0  0.8125 0.03125 0  0.84375 0.03125 0  0.875 0.03125 0  0.90625 0.03125 0  0.9375 0.03125 0  0.96875 0.03125 0  1 0.03125 0  0 0.0625 0  0.03125 0.0625 0  0.0625 0.0625 0  0.09375 0.0625 0  0.125 0.0625 0  0.15625 0.0625 0  0.1875 0.0625 0  0.21875 0.0625 0  0.25 0.0625 0  0.28125 0.0625 0  0.3125 0.0625 0  0.34375 0.0625 0  0.375 0.0625 0  0.40625 0.0625 0  0.4375 0.0625 0  0.46875 0.0625 0  0.5 0.0625 0  0.53125 0.0625 0  0.5625 0.0625 0  0.59375 0.0625 0  0.625 0.0625 0  0.65625 0.0625 0  0.6875 0.0625 0  0.71875 0.0625 0  0.75 0.0625 0  0.78125 0.0625 0  0.8125 0.0625 0  0.84375 0.0625 0  0.875 0.0625 0  0.90625 0.0625 0  0.9375 0.0625 0  0.96875 0.0625 0  1 0.0625 0  0 0.09375 0  0.03125 0.09375 0  0.0625 0.09375 0  0.09375 0.09375 0  0.125 0.09375 0  0.15625 0.09375 0  0.1875 0.09375 0  0.21875 0.09375 0  0.25 0.09375 0  0.28125 0.09375 0  0.3125 0.09375 0  0.34375 0.09375 0  0.375 0.09375 0  0.40625 0.09375 0  0.4375 0.09375 0  0.46875 0.09375 0  0.5 0.09375 0  0.53125 0.09375 0  0.5625 0.09375 0  0.59375 0.09375 0  0.625 0.09375 0  0.65625 0.09375 0  0.6875 0.09375 0  0.71875 0.09375 0  0.75 0.09375 0  0.78125 0.09375 0  0.8125 0.09375 0  0.84375 0.09375 0  0.875 0.09375 0  0.90625 0.09375 0  0.9375 0.09375 0  0.96875 0.09375 0  1 0.09375 0  0 0.125 0  0.03125 0.125 0  0.0625 0.125 0  0.09375 0.125 0  0.125 0.125 0  0.15625 0.125 0  0.1875 0.125 0  0.21875 0.125 0  0.25 0.125 0  0.28125 0.125 0  0.3125 0.125 0  0.34375 0.125 0  0.375 0.125 0  0.40625 0.125 0  0.4375 0.125 0  0.46875 0.125 0  0.5 0.125 0  0.53125 0.125 0  0.5625 0.125 0  0.59375 0.125 0  0.625 0.125 0  0.65625 0.125 0  0.6875 0.125 0  0.71875 0.125 0  0.75 0.125 0  0.78125 0.125 0  0.8125 0.125 0  0.84375 0.125 0  0.875 0.125 0  0.90625 0.125 0  0.9375 0.125 0  0.96875 0.125 0  1 0.125 0  0 0.15625 0  0.03125 0.15625 0  0.0625 0.15625 0  0.09375 0.15625 0  0.125 0.15625 0  0.15625 0.15625 0  0.1875 0.15625 0  0.21875 0.15625 0  0.25 0.15625 0  0.28125 0.15625 0  0.3125 0.15625 0  0.34375 0.15625 0  0.375 0.15625 0  0.40625 0.15625 0  0.4375 0.15625 0  0.46875 0.15625 0  0.5 0.15625 0  0.53125 0.15625 0  0.5625 0.15625 0  0.59375 0.15625 0  0.625 0.15625 0  0.65625 0.15625 0  0.6875 0.15625 0  0.71875 0.15625 0  0.75 0.15625 0  0.78125 0.15625 0  0.8125 0.15625 0  0.84375 0.15625 0  0.875 0.15625 0  0.90625 0.15625 0  0.9375 0.15625 0  0.96875 0.15625 0  1 0.15625 0  0 0.1875 0  0.03125 0.1875 0  0.0625 0.1875 0  0.09375 0.1875 0  0.125 0.1875 0  0.15625 0.1875 0  0.1875 0.1875 0  0.21875 0.1875 0  0.25 0.1875 0  0.28125 0.1875 0  0.3125 0.1875 0  0.34375 0.1875 0  0.375 0.1875 0  0.40625 0.1875 0  0.4375 0.1875 0  0.46875 0.1875 0  0.5 0.1875 0  0.53125 0.1875 0  0.5625 0.1875 0  0.59375 0.1875 0  0.625 0.1875 0  0.65625 0.1875 0  0.6875 0.1875 0  0.71875 0.1875 0  0.75 0.1875 0  0.78125 0.1875 0  0.8125 0.1875 0  0.84375 0.1875 0  0.875 0.1875 0  0.90625 0.1875 0  0.9375 0.1875 0  0.96875 0.1875 0  1 0.1875 0  0 0.21875 0  0.03125 0.21875 0  0.0625 0.21875 0  0.09375 0.21875 0  0.125 0.21875 0  0.15625 0.21875 0  0.1875 0.21875 0  0.21875 0.21875 0  0.25 0.21875 0  0.28125 0.21875 0  0.3125 0.21875 0  0.34375 0.21875 0  0.375 0.21875 0  0.40625 0.21875 0  0.4375 0.21875 0  0.46875 0.21875 0  0.5 0.21875 0  0.53125 0.21875 0  0.5625 0.21875 0  0.59375 0.21875 0  0.625 0.21875 0  0.65625 0.21875 0  0.6875 0.21875 0  0.71875 0.21875 0  0.75 0.21875 0  0.78125 0.21875 0  0.8125 0.21875 0  0.84375 0.21875 0  0.875 0.21875 0  0.90625 0.21875 0  0.9375 0.21875 0  0.96875 0.21875 0  1 0.21875 0  0 0.25 0  0.03125 0.25 0  0.0625 0.25 0  0.09375 0.25 0  0.125 0.25 0  0.15625 0.25 0  0.1875 0.25 0  0.21875 0.25 0  0.25 0.25 0  0.28125 0.25 0  0.3125 0.25 0  0.34375 0.25 0  0.375 0.25 0  0.40625 0.25 0  0.4375 0.25 0  0.46875 0.25 0  0.5 0.25 0  0.53125 0.25 0  0.5625 0.25 0  0.59375 0.25 0  0.625 0.25 0  0.65625 0.25 0  0.6875 0.25 0  0.71875 0.25 0  0.75 0.25 0  0.78125 0.25 0  0.8125 0.25 0  0.84375 0.25 0  0.875 0.25 0  0.90625 0.25 0  0.9375 0.25 0  0.96875 0.25 0  1 0.25 0  0 0.28125 0  0.03125 0.28125 0  0.0625 0.28125 0  0.09375 0.28125 0  0.125 0.28125 0  0.15625 0.28125 0  0.1875 0.28125 0  0.21875 0.28125 0  0.25 0.28125 0  0.28125 0.28125 0  0.3125 0.28125 0  0.34375 0.28125 0  0.375 0.28125 0  0.40625 0.28125 0  0.4375 0.28125 0  0.46875 0.28125 0  0.5 0.28125 0  0.53125 0.28125 0  0.5625 0.28125 0  0.59375 0.28125 0  0.625 0.28125 0  0.65625 0.28125 0  0.6875 0.28125 0  0.71875 0.28125 0  0.75 0.28125 0  0.78125 0.28125 0  0.8125 0.28125 0  0.84375 0.28125 0  0.875 0.28125 0  0.90625 0.28125 0  0.9375 0.28125 0  0.96875 0.28125 0  1 0.28125 0  0 0.3125 0  0.03125 0.3125 0  0.0625 0.3125 0  0.09375 0.3125 0  0.125 0.3125 0  0.15625 0.3125 0  0.1875 0.3125 0  0.21875 0.3125 0  0.25 0.3125 0  0.28125 0.3125 0  0.3125 0.3125 0  0.34375 0.3125 0  0.375 0.3125 0  0.40625 0.3125 0  0.4375 0.3125 0  0.46875 0.3125 0  0.5 0.3125 0  0.53125 0.3125 0  0.5625 0.3125 0  0.59375 0.3125 0  0.625 0.3125 0  0.65625 0.3125 0  0.6875 0.3125 0  0.71875 0.3125 0  0.75 0.3125 0  0.78125 0.3125 0  0.8125 0.3125 0  0.84375 0.3125 0  0.875 0.3125 0  0.90625 0.3125 0  0.9375 0.3125 0  0.96875 0.3125 0  1 0.3125 0  0 0.34375 0  0.03125 0.34375 0  0.0625 0.34375 0  0.09375 0.34375 0  0.125 0.34375 0  0.15625 0.34375 0  0.1875 0.34375 0  0.21875 0.34375 0  0.25 0.34375 0  0.28125 0.34375 0  0.3125 0.34375 0  0.34375 0.34375 0  0.375 0.34375 0  0.40625 0.34375 0  0.4375 0.34375 0  0.46875 0.34375 0  0.5 0.34375 0  0.53125 0.34375 0  0.5625 0.34375 0  0.59375 0.34375 0  0.625 0.34375 0  0.65625 0.34375 0  0.6875 0.34375 0  0.71875 0.34375 0  0.75 0.34375 0  0.78125 0.34375 0  0.8125 0.34375 0  0.84375 0.34375 0  0.875 0.34375 0  0.90625 0.34375 0  0.9375 0.34375 0  0.96875 0.34375 0  1 0.34375 0  0 0.375 0  0.03125 0.375 0  0.0625 0.375 0  0.09375 0.375 0  0.125 0.375 0  0.15625 0.375 0  0.1875 0.375 0  0.21875 0.375 0  0.25 0.375 0  0.28125 0.375 0  0.3125 0.375 0  0.34375 0.375 0  0.375 0.375 0  0.40625 0.375 0  0.4375 0.375 0  0.46875 0.375 0  0.5 0.375 0  0.53125 0.375 0  0.5625 0.375 0  0.59375 0.375 0  0.625 0.375 0  0.65625 0.375 0  0.6875 0.375 0  0.71875 0.375 0  0.75 0.375 0  0.78125 0.375 0  0.8125 0.375 0  0.84375 0.375 0  0.875 0.375 0  0.90625 0.375 0  0.9375 0.375 0  0.96875 0.375 0  1 0.375 0  0 0.40625 0  0.03125 0.40625 0  0.0625 0.40625 0  0.09375 0.40625 0  0.125 0.40625 0  0.15625 0.40625 0  0.1875 0.40625 0  0.21875 0.40625 0  0.25 0.40625 0  0.28125 0.40625 0  0.3125 0.40625 0  0.34375 0.40625 0  0.375 0.40625 0  0.40625 0.40625 0  0.4375 0.40625 0  0.46875 0.40625 0  0.5 0.40625 0  0.53125 0.40625 0  0.5625 0.40625 0  0.59375 0.40625 0  0.625 0.40625 0  0.65625 0.40625 0  0.6875 0.40625 0  0.71875 0.40625 0  0.75 0.40625 0  0.78125 0.40625 0  0.8125 0.40625 0  0.84375 0.40625 0  0.875 0.40625 0  0.90625 0.40625 0  0.9375 0.40625 0  0.96875 0.40625 0  1 0.40625 0  0 0.4375 0  0.03125 0.4375 0  0.0625 0.4375 0  0.09375 0.4375 0  0.125 0.4375 0  0.15625 0.4375 0  0.1875 0.4375 0  0.21875 0.4375 0  0.25 0.4375 0  0.28125 0.4375 0  0.3125 0.4375 0  0.34375 0.4375 0  0.375 0.4375 0  0.40625 0.4375 0  0.4375 0.4375 0  0.46875 0.4375 0  0.5 0.4375 0  0.53125 0.4375 0  0.5625 0.4375 0  0.59375 0.4375 0  0.625 0.4375 0  0.65625 0.4375 0  0.6875 0.4375 0  0.71875 0.4375 0  0.75 0.4375 0  0.78125 0.4375 0  0.8125 0.4375 0  0.84375 0.4375 0  0.875 0.4375 0  0.90625 0.4375 0  0.9375 0.4375 0  0.96875 0.4375 0  1 0.4375 0  0 0.46875 0  0.03125 0.46875 0  0.0625 0.46875 0  0.09375 0.46875 0  0.125 0.46875 0  0.15625 0.46875 0  0.1875 0.46875 0  0.21875 0.46875 0  0.25 0.46875 0  0.28125 0.46875 0  0.3125 0.46875 0  0.34375 0.46875 0  0.375 0.46875 0  0.40625 0.46875 0  0.4375 0.46875 0  0.46875 0.46875 0  0.5 0.46875 0  0.53125 0.46875 0  0.5625 0.46875 0  0.59375 0.46875 0  0.625 0.46875 0  0.65625 0.46875 0  0.6875 0.46875 0  0.71875 0.46875 0  0.75 0.46875 0  0.78125 0.46875 0  0.8125 0.46875 0  0.84375 0.46875 0  0.875 0.46875 0  0.90625 0.46875 0  0.9375 0.46875 0  0.96875 0.46875 0  1 0.46875 0  0 0.5 0  0.03125 0.5 0  0.0625 0.5 0  0.09375 0.5 0  0.125 0.5 0  0.15625 0.5 0  0.1875 0.5 0  0.21875 0.5 0  0.25 0.5 0  0.28125 0.5 0  0.3125 0.5 0  0.34375 0.5 0  0.375 0.5 0  0.40625 0.5 0  0.4375 0.5 0  0.46875 0.5 0  0.5 0.5 0  0.53125 0.5 0  0.5625 0.5 0  0.59375 0.5 0  0.625 0.5 0  0.65625 0.5 0  0.6875 0.5 0  0.71875 0.5 0  0.75 0.5 0  0.78125 0.5 0  0.8125 0.5 0  0.84375 0.5 0  0.875 0.5 0  0.90625 0.5 0  0.9375 0.5 0  0.96875 0.5 0  1 0.5 0  0 0.53125 0  0.03125 0.53125 0  0.0625 0.53125 0  0.09375 0.53125 0  0.125 0.53125 0  0.15625 0.53125 0  0.1875 0.53125 0  0.21875 0.53125 0  0.25 0.53125 0  0.28125 0.53125 0  0.3125 0.53125 0  0.34375 0.53125 0  0.375 0.53125 0  0.40625 0.53125 0  0.4375 0.53125 0  0.46875 0.53125 0  0.5 0.53125 0  0.53125 0.53125 0  0.5625 0.53125 0  0.59375 0.53125 0  0.625 0.53125 0  0.65625 0.53125 0  0.6875 0.53125 0  0.71875 0.53125 0  0.75 0.53125 0  0.78125 0.531
[...]
<PointData  Scalars="theta"> 
<DataArray  type="Float64"  Name="theta"  format="ascii">-1.3116448187145435e-05  -9.2010661575781999e-05  5.5765582979567397e-05  5.1274004131226093e-05  2.3080589310954699e-05  -1.0696924288955269e-05  -1.8813293124412791e-04  -5.8943168483887027e-05  1.5743168566692087e-04  1.6546442170304229e-04  8.8741693496083323e-05  7.2840444425251987e-06  -3.2042090741142196e-04  -3.6783639070189057e-04  -2.7226913109287668e-04  -1.0209712739491234e-04  1.0931201040743120e-04  3.3505526212299975e-04  5.0633199779521229e-05  1.7117061619750348e-04  2.0077153414298424e-04  6.3006164927429284e-05  2.3589806455593139e-05  -6.4326250551007019e-05  -2.0037891268412861e-05  -3.1541533615281114e-04  -1.5459010426593171e-04  -5.8230977035535810e-04  -3.9123376440299403e-04  -2.5279348634940456e-04  -9.4356965886976835e-05  -5.6374883154931929e-04  -4.9048075973540182e-04  0.0000000000000000e+00  -1.1312166211107253e-05  -8.6043273411793751e-05  5.2023974433733715e-05  4.2311767624016247e-05  2.1650168940262768e-05  -7.2840444425152748e-06  -1.7647338591692698e-04  -4.8640430763522436e-05  1.4686875941378400e-04  1.5473316062175271e-04  7.6534498696579118e-05  3.6975102612245023e-06  -2.9882703533768535e-04  -3.4355821196900820e-04  -2.5472371777382328e-04  -9.5517842069244168e-05  1.0209712739583396e-04  3.1247514858931456e-04  2.5702311019742562e-05  1.4762460334204322e-04  1.8775041619869206e-04  5.8778747360234597e-05  1.9466519651752963e-05  -6.0339628809302987e-05  -1.3644753070198943e-05  -2.9586745910413096e-04  -1.2756913916713323e-04  -5.4323952134742860e-04  -3.6586014253061857e-04  -2.1801953500432249e-04  -4.7897270855222439e-05  -5.2575655367787682e-04  4.5175789138552234e-05  2.0140234399473363e-05  -9.3349009143821846e-06  -8.0008614052203288e-05  4.8590253949235170e-05  3.2588331648924639e-05  2.0299563386576784e-05  -3.6975102612194650e-06  -1.6546442170261457e-04  -3.7462639314754458e-05  1.3717503121978827e-04  1.4388092454379472e-04  6.3156954073303694e-05  0.0000000000000000e+00  -2.7877714561349296e-04  -3.2141882802946429e-04  -2.3870302954185144e-04  -8.9510307389097725e-05  9.5517842070106407e-05  2.9150953460567144e-04  0.0000000000000000e+00  1.2182114539387234e-04  1.7458250938326935e-04  5.4899193922404004e-05  1.4993025205157308e-05  -5.6575453203927497e-05  -6.9263188723001240e-06  -2.7741031752137574e-04  -9.8253172788429855e-05  -5.0738427013405103e-04  -3.4020048029465260e-04  -1.7991167373996897e-04  0.0000000000000000e+00  -1.9478439937289417e-05  4.2357581489871636e-05  1.8782939556665627e-05  -7.1896983744793251e-06  -7.3689015728438075e-05  4.5459028292492318e-05  2.2190944763747384e-05  1.8983027104665390e-05  0.0000000000000000e+00  -1.5473316062135272e-04  -2.5510092651991898e-05  1.2833527545994696e-04  1.3251627761995868e-04  4.8643199772833308e-05  -6.7559123342794509e-05  -2.6037711359128775e-04  -3.0120339273058855e-04  -2.2390940051434291e-04  -8.3962902799411096e-05  8.9510307389905727e-05  2.7226913109368832e-04  4.2278383268640814e-04  9.3826094036639348e-05  1.6079285252285465e-04  5.1361411124974557e-05  1.0209463858211868e-05  -5.2906229615709657e-05  0.0000000000000000e+00  -2.5941876070617077e-04  -6.6905257799011058e-05  -4.7468770003315547e-04  -3.1332924385989267e-04  -1.3856715567759384e-04  -6.0931045188347174e-05  -1.5002206155049635e-05  3.9610463643863701e-05  1.7522692583423228e-05  -4.8958075305870961e-06  -6.6889067434966373e-05  4.2599911261823544e-05  1.1264517483061504e-05  1.7651649326390092e-05  -2.1918804832718369e-04  -1.4388092454342276e-04  -1.2949375870752933e-05  1.2026370892002378e-04  1.2028780873689140e-04  3.3123467961468744e-05  -6.3006164927365926e-05  -2.4359803893657459e-04  -2.8253630139774883e-04  -2.0994122868660381e-04  -7.8725033148722620e-05  8.3962902800169021e-05  2.5472371777458260e-04  3.9429149717800142e-04  6.3890649346387668e-05  1.4595504973356763e-04  4.8131067433469653e-05  5.1825050870024931e-06  -4.9195642360351670e-05  -4.4273241246588452e-04  -2.4122438257208329e-04  -3.3962296522720357e-05  -4.4483251530106282e-04  -2.8441553621950672e-04  3.2387875272305242e-06  -5.7098825373318196e-05  -1.0215715603595284e-05  3.6832377156821754e-05  1.6366148333927046e-05  -2.4851988101064298e-06  -5.9452169105471860e-05  3.9959780195947366e-05  0.0000000000000000e+00  1.6257407783573683e-05  -2.0441648203362760e-04  -1.3251627761961613e-04  0.0000000000000000e+00  1.1281036114035865e-04  1.0691390118879027e-04  1.6814060326135640e-05  -5.8778747360175501e-05  -2.2827709328679483e-04  -2.6491079931328037e-04  -1.9632540654445179e-04  -7.3619289716649299e-05  7.8725033149433247e-05  2.3870302954256305e-04  3.6783639070253762e-04  3.2432027758560415e-05  1.2972739240226755e-04  4.5148142760601574e-05  0.0000000000000000e+00  -4.5309852027898453e-05  -4.1289569814246602e-04  -2.2217091911927076e-04  0.0000000000000000e+00  -4.1726400381895929e-04  2.6550344707581101e-05  2.4944994738976670e-06  -5.3560123572588592e-05  -5.1856785839365297e-06  3.3923117551491436e-05  1.5311490261573871e-05  0.0000000000000000e+00  -5.1274004131016070e-05  3.7466963571484460e-05  1.3935806808417579e-04  1.4757190536520372e-05  -1.9070109675079969e-04  -1.2028780873658045e-04  4.7548334230752719e-16  1.0577289641249033e-04  9.2206960548265877e-05  0.0000000000000000e+00  -5.4899193922348805e-05  -2.1412961204181672e-04  -2.4772990373812207e-04  -1.8255609134814631e-04  -6.8455988529713240e-05  7.3619289717313848e-05  2.2390940051501043e-04  3.4355821196961254e-04  0.0000000000000000e+00  1.1188225684649755e-04  4.2331659779830161e-05  -9.0291475483407469e-05  -4.1128704431762769e-05  -3.8519233721330895e-04  -2.0166921004648831e-04  -6.2438870298650747e-04  0.0000000000000000e+00  2.4894050795359048e-05  1.6986233181497241e-06  -5.0218874802066635e-05  0.0000000000000000e+00  3.0792726366004588e-05  1.4348483699046556e-05  -1.3935806808383177e-04  -4.2311767623842937e-05  3.5037028701676896e-05  1.2996642033258622e-04  1.3116448187170322e-05  -1.7811431787707793e-04  -1.0691390118851388e-04  4.4343947054544556e-16  9.8912953017748069e-05  7.6090010018528404e-05  4.8200734510816982e-05  -5.1361411124922909e-05  -2.0077153414273534e-04  -2.3035532554083570e-04  -1.6813662936216399e-04  -6.3048891362878185e-05  6.8455988530331181e-05  2.0994122868722969e-04  3.2141882803002965e-04  3.2042090741181921e-04  9.2326240814427003e-05  3.9586223096668374e-05  -8.4206533690161278e-05  -3.6555909429347230e-05  -3.5976861991454803e-04  -1.7924710926352561e-04  -1.6085150266826474e-05  2.0970058950036666e-05  2.3279537199588444e-05  8.6225134928425304e-07  -4.6961909642047206e-05  2.8571057804404735e-16  2.7369111954059452e-05  1.3459235894532489e-05  -1.2996642033226538e-04  -3.2588331648791160e-05  3.2579700838580591e-05  1.2124628430951279e-04  1.1312166211128717e-05  -1.6663637576645149e-04  -9.2206960548027529e-05  4.1368676602945891e-16  9.1975676528317484e-05  5.8604180843684479e-05  4.4952380639980831e-05  -4.8131067433421257e-05  -1.8775041619845933e-04  -2.1216037058000584e-04  -1.5262115022868304e-04  -5.7230803049577085e-05  6.3048891363447324e-05  1.9632540654503707e-04  3.0120339273111840e-04  2.9882703533805582e-04  7.1109252213118418e-05  3.6809836724454859e-05  -7.8556671010781036e-05  -3.1527324894877316e-05  -3.3658461403665471e-04  -7.0430284485367800e-06  -1.3872497398137259e-05  1.9556840399461942e-05  2.1646822967807778e-05  0.0000000000000000e+00  -4.3668228261408611e-05  2.6645591166712859e-16  2.3604251627978470e-05  1.2619606476504276e-05  -1.2124628430921347e-04  -2.2190944763656491e-05  3.0006345141231198e-05  1.1324370752381930e-04  9.3349009143998994e-06  -1.5615588558049064e-04  -7.6090010018331703e-05  3.8638234074971265e-16  8.4710842133907415e-05  3.9906373668864345e-05  4.1936287154151992e-05  -4.5148142760556173e-05  -1.7458250938305291e-04  -1.9258242486304227e-04  -1.3565233872170893e-04  -5.0867735362785929e-05  5.7230803050093707e-05  1.8255609134869055e-04  2.8253630139824583e-04  2.7877714561383855e-04  4.8421671445238374e-05  3.3902357508402489e-05  -7.3371722083295324e-05  -2.6016630987992487e-05  4.3385120187020830e-06  -6.5862500287031681e-06  -1.1447709150479366e-05  1.8244668316639040e-05  1.9937016745530973e-05  -2.0140234399417882e-05  -4.0219028879670345e-05  2.4857797221212593e-16  1.9478439937434043e-05  1.1801156863900879e-05  -1.1324370752353973e-04  -1.1264517483015365e-05  2.7237389776317911e-05  1.0594612058727586e-04  7.1896983744929674e-06  -1.4647811883335843e-04  -5.8604180843532982e-05  3.6148330852955070e-16  7.6893810779738930e-05  2.0257183669479615e-05  3.9168380822265651e-05  -4.2331659779787592e-05  -1.6079285252265532e-04  -1.7117061619720242e-04  -1.1699217506529514e-04  -4.3870434205685945e-05  5.0867735363245109e-05  1.6813662936266522e-04  2.6491079931374630e-04  2.6037711359161057e-04  2.4579699979472080e-05  3.0773882038822276e-05  -6.8643543076314916e-05  1.5353571314601286e-05  4.0589320815558391e-06  -6.1243222822993619e-06  -8.8169737017675506e-06  1.7040471751235860e-05  1.8097248882498289e-05  -1.8782939556613884e-05  -3.6507657325960482e-05  2.3217116584120732e-16  1.5002206155161023e-05  1.0973480755137527e-05  -1.0594612058701431e-04  0.0000000000000000e+00  2.4209066818695093e-05  9.9282705879962489e-05  4.8958075305963855e-06  -1.3734035361149461e-04  -3.9906373668761183e-05  3.3874804289497880e-16  6.8344559386866751e-05  0.0000000000000000e+00  3.6644314183472468e-05  -3.9586223096628570e-05  -1.4595504973338670e-04  -1.4762460334178355e-04  -9.6542991113431206e-05  -3.6202275385495437e-05  4.3870434206081963e-05  1.5262115022913800e-04  2.4772990373855787e-04  2.4359803893687660e-04  0.0000000000000000e+00  2.7352362787577033e-05  -1.1777826221451652e-06  1.4318860260566384e-05  3.8036480977884002e-06  -5.6405836588035925e-06  -6.0038966863096027e-06  1.5942359310699596e-05  1.6085150266927786e-05  -1.7522692583374958e-05  -3.2448642210446042e-05  2.1720972291486654e-16  1.0215715603671134e-05  1.0106724201389583e-05  -9.9282705879717392e-05  -5.9795321665683245e-05  2.0878898293310036e-05  9.3129656534696897e-05  2.4851988101111456e-06  -1.2843309018632966e-04  -2.0257183669427248e-05  3.1775412048854263e-16  5.8943168484194974e-05  2.1918804832755991e-04  3.4339593059980124e-05  -3.6809836724417847e-05  -1.2972739240210674e-04  -1.2182114539365806e-04  -7.4356974181289108e-05  -2.7882828417657161e-05  3.6202275385822229e-05  1.3565233872211331e-04  2.3035532554124095e-04  2.2827709328707781e-04  6.7559123342862448e-05  -8.0682207676202502e-07  0.0000000000000000e+00  1.3358132029012458e-05  3.5679168671547966e-06  -5.1200762691240248e-06  -3.0476845357172937e-06  1.4939674635589855e-05  1.3872497398224637e-05  -1.6366148333881960e-05  -2.7985048145049807e-05  2.0354845382620663e-16  5.1856785839750324e-06  9.1740858521531460e-06  -9.3129656534466978e-05  -5.5765582978879105e-05  1.7229453946507663e-05  8.7319935988141982e-05  0.0000000000000000e+00  -1.1942541394341460e-04  0.0000000000000000e+00  2.9793162021048150e-16  4.8640430763776552e-05  2.0441648203397850e-04  3.2211395518206220e-05  -3.3902357508368404e-05  -1.1188225684635885e-04  -9.3826094036474306e-05  -5.0633199779370294e-05  -1.8986743842521728e-05  2.7882828417908858e-05  1.1699217506564390e-04  2.1216037058037905e-04  2.1412961204208219e-04  2.9174579744373441e-07  -4.0955720840932121e-07  1.3042446753156360e-16  1.2476459836875709e-05  3.3453390041752816e-06  -4.5508130380324242e-06  0.0000000000000000e+00  1.4013787751058945e-05  1.1447709150551470e-05  -1.5311490261531692e-05  -2.3093512475245411e-05  1.9093353092050513e-16  0.0000000000000000e+00  8.1540874224418750e-06  -8.7319935987926402e-05  -5.2023974433091603e-05  1.3270047338319389e-05  8.1656766703496812e-05  -4.8200734510751306e-05  -1.0999242157487616e-04  -1.6880803144011717e-04  2.7860914612243711e-16  3.7462639314950183e-05  1.9070109675112704e-04  3.0201947471915962e-05  -3.0773882038791335e-05  -9.2326240814312539e-05  -6.3890649346275277e-05  -2.5702311019665940e-05  -9.6380082163017860e-06  1.8986743842693120e-05  9.6542991113719007e-05  1.9258242486338103e-04  2.6744422266400833e-07  1.4809534568728731e-07  0.0000000000000000e+00  1.2163487483639789e-16  1.1672458870192928e-05  3.1283757084424070e-06  -3.9248089686618398e-06  -2.0970058949649406e-05  1.3139563646065560e-05  8.8169737018230854e-06  -1.4348483699007031e-05  -1.7786518638722872e-05  1.7902249743353141e-16  8.0146707560044763e-05  7.0324214990579794e-06  -8.1656766703295218e-05  -4.8590253948635443e-05  9.0362062921584311e-06  7.5929755724930196e-05  -4.4952380639919587e-05  -9.9842431484911464e-05  -1.5743168566609837e-04  2.5906884710023813e-16  2.5510092652125174e-05  1.7811431787738367e-04  2.8243188119611255e-05  -2.7352362787549535e-05  -7.1109252213030259e-05  -3.2432027758503358e-05  0.0000000000000000e+00  0.0000000000000000e+00  9.6380082163887865e-06  7.4356974181510774e-05  3.4864022172613470e-06  0.0000000000000000e+00  0.0000000000000000e+00  -1.5353571314409959e-05  1.1347374636176097e-16  1.0938326901273101e-05  2.9089665553420119e-06  -3.2387875272167396e-06  -1.9556840399100781e-05  1.2287392003794271e-05  6.0038966863474193e-06  -1.3459235894495412e-05  -1.2111686382211193e-05  1.6741192194177058e-16  7.4745444065211106e-05  5.8032172314989034e-06  -7.5929755724742751e-05  -4.5459028291931236e-05  4.5869387194752308e-06  6.9932332038899516e-05  -4.1936287154094854e-05  -8.8741693495930979e-05  -1.4686875941301674e-04  2.3860591231166374e-16  1.2949375870820587e-05  1.6663637576673756e-04  2.6262347401069687e-05  -2.3589806455569419e-05  -4.8421671445178343e-05  0.0000000000000000e+00  -1.2564105098472058e-04  1.2564105098585471e-04  0.0000000000000000e+00  -2.8330840001966514e-06  3.2514458778472432e-06  1.9305705557113482e-06  -5.3389867437423769e-06  -1.4318860260387950e-05  1.0598417772391157e-16  1.0260423689614534e-05  2.6791975437824092e-06  -2.4944994738870499e-06  -1.8244668316302114e-05  1.1425613712238823e-05  3.0476845357364900e-06  -1.2619606476469514e-05  -6.1481070073528766e-06  1.5567045881986131e-16  6.9730376036979466e-05  4.4696116090290037e-06  -6.9932332038726870e-05  -4.2599911261297747e-05  0.0000000000000000e+00  6.3479046739786852e-05  -3.9168380822212281e-05  -7.6534498696447740e-05  -1.3717503121907164e-04  2.1658759858882484e-16  0.0000000000000000e+00  1.5615588558075871e-04  2.4187977177562866e-05  -1.9466519651733390e-05  -2.4579699979441607e-05  -3.3505526212200104e-04  -1.1717382328696528e-04  1.1717382328802299e-04  -1.2096701659281824e-06  -2.6505160037751580e-06  3.0332891397149360e-06  1.8004651454678612e-06  -4.9791806446986703e-06  -1.3358132028845996e-05  9.9154405299906158e-17  9.6203462261729749e-06  2.4319638877805973e-06  -1.6986233181424943e-06  -1.7040471750921167e-05  1.0523144770372867e-05  0.0000000000000000e+00  -1.1801156863868372e-05  0.0000000000000000e+00  1.4337459815196029e-16  6.5127986019758723e-05  3.0435710977747955e-06  -6.3479046739630131e-05  -3.9959780195454155e-05  1.4684422171520710e-04  5.6421283270203173e-05  -3.6644314183422548e-05  -6.3156954073195288e-05  -1.2833527545927649e-04  1.9250683304817027e-16  2.6407259561359183e-04  1.4647811883360991e-04  2.1955934959259409e-05  -1.4993025205142231e-05  0.0000000000000000e+00  -3.1247514858838313e-04  -1.0931201040644446e-04  1.5747566700486968e-07  -1.1312165247211341e-06  -2.4838134645634861e-06  2.8330840002995884e-06  1.6796623955490350e-06  -4.6451010232540182e-06  -1.2476459836720232e-05  9.2918151259570327e-17  8.9964148336543930e-06  2.1615718959650276e-06  -8.6225134928058306e-07  -1.5942359310405184e-05  9.5520795496491040e-06  1.1240306431138945e-05  -1.0973480755107300e-05  -6.7600493040951588e-05  1.3014413436583097e-16  6.0931045188576503e-05  1.5449707169671349e-06  -5.6421283270063880e-05  -3.7466963571022007e-05  1.3694806554954807e-04  4.8660043106944675e-05  -3.4339593059933334e-05  -4.8643199772749804e-05  -1.2026370891939547e-04  1.6602583726507352e-16  2.4627616062460517e-04  1.3734035361173040e-04  1.9514817714206456e-05  -1.0209463858201603e-05  -4.2278383268566454e-04  -2.9150953460480250e-04  0.0000000000000000e+00  1.3581351399000590e-07  -1.0518784647200825e-06  -2.3298790338241372e-06  2.6505160038714614e-06  1.5688002163822925e-06  -4.3385120186705835e-06  -1.1672458870047470e-05  8.7159545420782675e-17  8.3654497758881278e-06  1.8642288076415748e-06  0.0000000000000000e+00  -1.4939674635313961e-05  8.4900548097310082e-06  1.0482797374990004e-05  -1.0106724201361743e-05  -6.3044746630267176e-05  1.1567437521722603e-16  5.7098825373533098e-05  0.0000000000000000e+00  -4.8660043106824552e-05  -3.5037028701244442e-05  1.2775949394287577e-04  4.0154703565696014e-05  -3.2211395518162330e-05  -3.3123467961411884e-05  -1.1281036113976928e-04  1.3700600850215961e-16  2.2975218762918685e-04  1.2843309018655016e-04  1.6830384141562868e-05  -5.1825050869972822e-06  -3.9429149717730791e-04  1.9491469431058170e-17  3.8895791538395111e-07  1.1207452863324475e-07  -9.6879429358180331e-07  -2.1845338602515002e-06  2.4838134646537328e-06  1.4677044803325882e-06  -4.0589320815263700e-06  -1.0938326901136795e-05  8.1722259160945034e-17  7.7046923936048780e-06  1.5383783155505434e-06  -3.9729607979555086e-05  -1.4013787750800149e-05  7.3221736386845240e-06  9.7794509353611619e-06  -9.1740858521278756e-06  -5.8814740412127988e-05  9.9762354880923333e-17  5.3560123572790186e-05  -3.2397045468338487e-05  -4.0154703565596884e-05  -3.2579700838178474e-05  1.1932702802277180e-04  3.0926970687946602e-05  -3.0201947471874813e-05  -1.6814060326106776e-05  -1.0577289641193772e-04  1.0552140677832467e-16  2.1458793304064957e-04  1.1942541394361962e-04  1.3888583793810829e-05  0.0000000000000000e+00  -1.1207452862821978e-07  1.8275530334429198e-17  3.6274518309153603e-07  8.6319293983454748e-08  -8.7939493007769349e-07  -2.0428550452289643e-06  2.3298790339087910e-06  1.3753941289386320e-06  -3.8036480977607849e-06  -1.0260423689486675e-05  7.6422129440111005e-17  6.9937111248810106e-06  1.1848520060461727e-06  -3.7052142020229748e-05  -1.3139563645822909e-05  6.0423232932970598e-06  9.1339812001207112e-06  -8.1540874224194150e-06  -5.4932811337277522e-05  8.2324789118148664e-17  5.0218874802255652e-05  -3.0213737078564569e-05  -3.0926970687870254e-05  -3.0006345140860841e-05  1.1163742318806280e-04  2.1059645079097021e-05  -2.8243188119572776e-05  0.0000000000000000e+00  -9.8912953017231311e-05  7.1854543964909938e-17  2.0075957885533715e-04  1.0999242157506498e-04  1.0696924288969845e-05  -2.9570288086876231e-07  -8.6319293979584535e-08  1.7090263523599246e-17  3.3840668603838782e-07  5.8778912202942568e-08  -7.8162154292710569e-07  -1.8995790652464571e-06  2.1845338603308727e-06  1.2901540272558676e-06  -3.5679168671288926e-06  -9.6203462260530927e-06  7.1062250620782088e-17  6.2161323578849902e-06  8.0682207676788278e-07  -3.4566117418368581e-05  -1.2287392003567357e-05  4.6537700140946374e-06  8.5453743508561359e-06  -7.0324214990386077e-06  -5.1392862185416681e-05  6.3406179447516928e-17  4.6961909642223965e-05  -2.8186537310991978e-05  -2.1059645079045030e-05  -2.7237389775981731e-05  1.0461605757850176e-04  1.0690249680946802e-05  -2.6262347401033908e-05  -2.6407259561290921e-04  -9.1975676527836965e-05  3.6474642037433246e-17  1.8813293124461420e-04  9.9842431485082863e-05  8.4478378988637234e-19  -2.7710483391382268e-07  -5.8778912200307164e-08  1.5891635035385326e-17  3.1607094597644030e-07  2.9837219243908039e-08  -6.7410267487190765e-07  -1.7495380125573256e-06  2.0428550453031889e-06  1.2096701659460555e-06  -3.3453390041509934e-06  -8.9964148335422848e-06  6.5449294000722848e-17  5.3610490751262226e-06  4.0955720841229467e-07  -3.2284661863675857e-05  -1.1425613712027823e-05  3.1689733134701839e-06  8.0079183985913578e-06  -5.8032172314829173e-06  -4.8160540399220354e-05  4.3176282878124344e-17  4.366822826