<?xml version="1.0"?>
<VTKFile type="UnstructuredGrid"  version="0.1"  >
<UnstructuredGrid>
<Piece  NumberOfPoints="1089" NumberOfCells="2048">
<Points>
<DataArray  type="Float64"  NumberOfComponents="3"  format="ascii">0 0 0  0.03125 0 0  0.0625 0 0  0.09375 0 0  0.125 0 0  0.15625 0 0  0.1875 0 0  0.21875 0 0  0.25 0 0  0.28125 0 0  0.3125 0 0  0.34375 0 0  0.375 0 0  0.40625 0 0  0.4375 0 0  0.46875 0 0  0.5 0 0  0.53125 0 0  0.5625 0 0  0.59375 0 0  0.625 0 0  0.65625 0 0  0.6875 0 0  0.71875 0 0  0.75 0 0  0.78125 0 0  0.8125 0 0  0.84375 0 0  0.875 0 0  0.90625 0 0  0.9375 0 0  0.96875 0 0  1 0 0  0 0.03125 0  0.03125 0.03125 0  0.0625 0.03125 0  0.09375 0.03125 0  0.125 0.03125 0  0.15625 0.03125 0  0.1875 0.03125 0  0.21875 0.03125 0  0.25 0.03125 0  0.28125 0.03125 0  0.3125 0.03125 0  0.34375 0.03125 0  0.375 0.03125 0  0.40625 0.03125 0  0.4375 0.03125 0  0.46875 0.03125 0  0.5 0.03125 0  0.53125 0.03125 0  0.5625 0.03125 0  0.59375 0.03125 0  0.625 0.03125 0  0.65625 0.03125 0  0.6875 0.03125 0  0.71875 0.03125 0  0.75 0.03125 0  0.78125 0.03125 0  0.8125 0.03125 0  0.84375 0.03125 0  0.875 0.03125 0  0.90625 0.03125 0  0.9375 0.03125 0  0.96875 0.03125 0  1 0.03125 0  0 0.0625 0  0.03125 0.0625 0  0.0625 0.0625 0  0.09375 0.0625 0  0.125 0.0625 0  0.15625 0.0625 0  0.1875 0.0625 0  0.21875 0.0625 0  0.25 0.0625 0  0.28125 0.0625 0  0.3125 0.0625 0  0.34375 0.0625 0  0.375 0.0625 0  0.40625 0.0625 0  0.4375 0.0625 0  0.46875 0.0625 0  0.5 0.0625 0  0.53125 0.0625 0  0.5625 0.0625 0  0.59375 0.0625 0  0.625 0.0625 0  0.65625 0.0625 0  0.6875 0.0625 0  0.71875 0.0625 0  0.75 0.0625 0  0.78125 0.0625 0  0.8125 0.0625 0  0.84375 0.0625 0  0.875 0.0625 0  0.90625 0.0625 0  0.9375 0.0625 0  0.96875 0.0625 0  1 0.0625 0  0 0.09375 0  0.03125 0.09375 0  0.0625 0.09375 0  0.09375 0.09375 0  0.125 0.09375 0  0.15625 0.09375 0  0.1875 0.09375 0  0.21875 0.09375 0  0.25 0.09375 0  0.28125 0.09375 0  0.3125 0.09375 0  0.34375 0.09375 0  0.375 0.09375 0  0.40625 0.09375 0  0.4375 0.09375 0  0.46875 0.09375 0  0.5 0.09375 0  0.53125 0.09375 0  0.5625 0.09375 0  0.59375 0.09375 0  0.625 0.09375 0  0.65625 0.09375 0  0.6875 0.09375 0  0.71875 0.09375 0  0.75 0.09375 0  0.78125 0.09375 0  0.8125 0.09375 0  0.84375 0.09375 0  0.875 0.09375 0  0.90625 0.09375 0  0.9375 0.09375 0  0.96875 0.09375 0  1 0.09375 0  0 0.125 0  0.03125 0.125 0  0.0625 0.125 0  0.09375 0.125 0  0.125 0.125 0  0.15625 0.125 0  0.1875 0.125 0  0.21875 0.125 0  0.25 0.125 0  0.28125 0.125 0  0.3125 0.125 0  0.34375 0.125 0  0.375 0.125 0  0.40625 0.125 0  0.4375 0.125 0  0.46875 0.125 0  0.5 0.125 0  0.53125 0.125 0  0.5625 0.125 0  0.59375 0.125 0  0.625 0.125 0  0.65625 0.125 0  0.6875 0.125 0  0.71875 0.125 0  0.75 0.125 0  0.78125 0.125 0  0.8125 0.125 0  0.84375 0.125 0  0.875 0.125 0  0.90625 0.125 0  0.9375 0.125 0  0.96875 0.125 0  1 0.125 0  0 0.15625 0  0.03125 0.15625 0  0.0625 0.15625 0  0.09375 0.15625 0  0.125 0.15625 0  0.15625 0.15625 0  0.1875 0.15625 0  0.21875 0.15625 0  0.25 0.15625 0  0.28125 0.15625 0  0.3125 0.15625 0  0.34375 0.15625 0  0.375 0.15625 0  0.40625 0.15625 0  0.4375 0.15625 0  0.46875 0.15625 0  0.5 0.15625 0  0.53125 0.15625 0  0.5625 0.15625 0  0.59375 0.15625 0  0.625 0.15625 0  0.65625 0.15625 0  0.6875 0.15625 0  0.71875 0.15625 0  0.75 0.15625 0  0.78125 0.15625 0  0.8125 0.15625 0  0.84375 0.15625 0  0.875 0.15625 0  0.90625 0.15625 0  0.9375 0.15625 0  0.96875 0.15625 0  1 0.15625 0  0 0.1875 0  0.03125 0.1875 0  0.0625 0.1875 0  0.09375 0.1875 0  0.125 0.1875 0  0.15625 0.1875 0  0.1875 0.1875 0  0.21875 0.1875 0  0.25 0.1875 0  0.28125 0.1875 0  0.3125 0.1875 0  0.34375 0.1875 0  0.375 0.1875 0  0.40625 0.1875 0  0.4375 0.1875 0  0.46875 0.1875 0  0.5 0.1875 0  0.53125 0.1875 0  0.5625 0.1875 0  0.59375 0.1875 0  0.625 0.1875 0  0.65625 0.1875 0  0.6875 0.1875 0  0.71875 0.1875 0  0.75 0.1875 0  0.78125 0.1875 0  0.8125 0.1875 0  0.84375 0.1875 0  0.875 0.1875 0  0.90625 0.1875 0  0.9375 0.1875 0  0.96875 0.1875 0  1 0.1875 0  0 0.21875 0  0.03125 0.21875 0  0.0625 0.21875 0  0.09375 0.21875 0  0.125 0.21875 0  0.15625 0.21875 0  0.1875 0.21875 0  0.21875 0.21875 0  0.25 0.21875 0  0.28125 0.21875 0  0.3125 0.21875 0  0.34375 0.21875 0  0.375 0.21875 0  0.40625 0.21875 0  0.4375 0.21875 0  0.46875 0.21875 0  0.5 0.21875 0  0.53125 0.21875 0  0.5625 0.21875 0  0.59375 0.21875 0  0.625 0.21875 0  0.65625 0.21875 0  0.6875 0.21875 0  0.71875 0.21875 0  0.75 0.21875 0  0.78125 0.21875 0  0.8125 0.21875 0  0.84375 0.21875 0  0.875 0.21875 0  0.90625 0.21875 0  0.9375 0.21875 0  0.96875 0.21875 0  1 0.21875 0  0 0.25 0  0.03125 0.25 0  0.0625 0.25 0  0.09375 0.25 0  0.125 0.25 0  0.15625 0.25 0  0.1875 0.25 0  0.21875 0.25 0  0.25 0.25 0  0.28125 0.25 0  0.3125 0.25 0  0.34375 0.25 0  0.375 0.25 0  0.40625 0.25 0  0.4375 0.25 0  0.46875 0.25 0  0.5 0.25 0  0.53125 0.25 0  0.5625 0.25 0  0.59375 0.25 0  0.625 0.25 0  0.65625 0.25 0  0.6875 0.25 0  0.71875 0.25 0  0.75 0.25 0  0.78125 0.25 0  0.8125 0.25 0  0.84375 0.25 0  0.875 0.25 0  0.90625 0.25 0  0.9375 0.25 0  0.96875 0.25 0  1 0.25 0  0 0.28125 0  0.03125 0.28125 0  0.0625 0.28125 0  0.09375 0.28125 0  0.125 0.28125 0  0.15625 0.28125 0  0.1875 0.28125 0  0.21875 0.28125 0  0.25 0.28125 0  0.28125 0.28125 0  0.3125 0.28125 0  0.34375 0.28125 0  0.375 0.28125 0  0.40625 0.28125 0  0.4375 0.28125 0  0.46875 0.28125 0  0.5 0.28125 0  0.53125 0.28125 0  0.5625 0.28125 0  0.59375 0.28125 0  0.625 0.28125 0  0.65625 0.28125 0  0.6875 0.28125 0  0.71875 0.28125 0  0.75 0.28125 0  0.78125 0.28125 0  0.8125 0.28125 0  0.84375 0.28125 0  0.875 0.28125 0  0.90625 0.28125 0  0.9375 0.28125 0  0.96875 0.28125 0  1 0.28125 0  0 0.3125 0  0.03125 0.3125 0  0.0625 0.3125 0  0.09375 0.3125 0  0.125 0.3125 0  0.15625 0.3125 0  0.1875 0.3125 0  0.21875 0.3125 0  0.25 0.3125 0  0.28125 0.3125 0  0.3125 0.3125 0  0.34375 0.3125 0  0.375 0.3125 0  0.40625 0.3125 0  0.4375 0.3125 0  0.46875 0.3125 0  0.5 0.3125 0  0.53125 0.3125 0  0.5625 0.3125 0  0.59375 0.3125 0  0.625 0.3125 0  0.65625 0.3125 0  0.6875 0.3125 0  0.71875 0.3125 0  0.75 0.3125 0  0.78125 0.3125 0  0.8125 0.3125 0  0.84375 0.3125 0  0.875 0.3125 0  0.90625 0.3125 0  0.9375 0.3125 0  0.96875 0.3125 0  1 0.3125 0  0 0.34375 0  0.03125 0.34375 0  0.0625 0.34375 0  0.09375 0.34375 0  0.125 0.34375 0  0.15625 0.34375 0  0.1875 0.34375 0  0.21875 0.34375 0  0.25 0.34375 0  0.28125 0.34375 0  0.3125 0.34375 0  0.34375 0.34375 0  0.375 0.34375 0  0.40625 0.34375 0  0.4375 0.34375 0  0.46875 0.34375 0  0.5 0.34375 0  0.53125 0.34375 0  0.5625 0.34375 0  0.59375 0.34375 0  0.625 0.34375 0  0.65625 0.34375 0  0.6875 0.34375 0  0.71875 0.34375 0  0.75 0.34375 0  0.78125 0.34375 0  0.8125 0.34375 0  0.84375 0.34375 0  0.875 0.34375 0  0.90625 0.34375 0  0.9375 0.34375 0  0.96875 0.34375 0  1 0.34375 0  0 0.375 0  0.03125 0.375 0  0.0625 0.375 0  0.09375 0.375 0  0.125 0.375 0  0.15625 0.375 0  0.1875 0.375 0  0.21875 0.375 0  0.25 0.375 0  0.28125 0.375 0  0.3125 0.375 0  0.34375 0.375 0  0.375 0.375 0  0.40625 0.375 0  0.4375 0.375 0  0.46875 0.375 0  0.5 0.375 0  0.53125 0.375 0  0.5625 0.375 0  0.59375 0.375 0  0.625 0.375 0  0.65625 0.375 0  0.6875 0.375 0  0.71875 0.375 0  0.75 0.375 0  0.78125 0.375 0  0.8125 0.375 0  0.84375 0.375 0  0.875 0.375 0  0.90625 0.375 0  0.9375 0.375 0  0.96875 0.375 0  1 0.375 0  0 0.40625 0  0.03125 0.40625 0  0.0625 0.40625 0  0.09375 0.40625 0  0.125 0.40625 0  0.15625 0.40625 0  0.1875 0.40625 0  0.21875 0.40625 0  0.25 0.40625 0  0.28125 0.40625 0  0.3125 0.40625 0  0.34375 0.40625 0  0.375 0.40625 0  0.40625 0.40625 0  0.4375 0.40625 0  0.46875 0.40625 0  0.5 0.40625 0  0.53125 0.40625 0  0.5625 0.40625 0  0.59375 0.40625 0  0.625 0.40625 0  0.65625 0.40625 0  0.6875 0.40625 0  0.71875 0.40625 0  0.75 0.40625 0  0.78125 0.40625 0  0.8125 0.40625 0  0.84375 0.40625 0  0.875 0.40625 0  0.90625 0.40625 0  0.9375 0.40625 0  0.96875 0.40625 0  1 0.40625 0  0 0.4375 0  0.03125 0.4375 0  0.0625 0.4375 0  0.09375 0.4375 0  0.125 0.4375 0  0.15625 0.4375 0  0.1875 0.4375 0  0.21875 0.4375 0  0.25 0.4375 0  0.28125 0.4375 0  0.3125 0.4375 0  0.34375 0.4375 0  0.375 0.4375 0  0.40625 0.4375 0  0.4375 0.4375 0  0.46875 0.4375 0  0.5 0.4375 0  0.53125 0.4375 0  0.5625 0.4375 0  0.59375 0.4375 0  0.625 0.4375 0  0.65625 0.4375 0  0.6875 0.4375 0  0.71875 0.4375 0  0.75 0.4375 0  0.78125 0.4375 0  0.8125 0.4375 0  0.84375 0.4375 0  0.875 0.4375 0  0.90625 0.4375 0  0.9375 0.4375 0  0.96875 0.4375 0  1 0.4375 0  0 0.46875 0  0.03125 0.46875 0  0.0625 0.46875 0  0.09375 0.46875 0  0.125 0.46875 0  0.15625 0.46875 0  0.1875 0.46875 0  0.21875 0.46875 0  0.25 0.46875 0  0.28125 0.46875 0  0.3125 0.46875 0  0.34375 0.46875 0  0.375 0.46875 0  0.40625 0.46875 0  0.4375 0.46875 0  0.46875 0.46875 0  0.5 0.46875 0  0.53125 0.46875 0  0.5625 0.46875 0  0.59375 0.46875 0  0.625 0.46875 0  0.65625 0.46875 0  0.6875 0.46875 0  0.71875 0.46875 0  0.75 0.46875 0  0.78125 0.46875 0  0.8125 0.46875 0  0.84375 0.46875 0  0.875 0.46875 0  0.90625 0.46875 0  0.9375 0.46875 0  0.96875 0.46875 0  1 0.46875 0  0 0.5 0  0.03125 0.5 0  0.0625 0.5 0  0.09375 0.5 0  0.125 0.5 0  0.15625 0.5 0  0.1875 0.5 0  0.21875 0.5 0  0.25 0.5 0  0.28125 0.5 0  0.3125 0.5 0  0.34375 0.5 0  0.375 0.5 0  0.40625 0.5 0  0.4375 0.5 0  0.46875 0.5 0  0.5 0.5 0  0.53125 0.5 0  0.5625 0.5 0  0.59375 0.5 0  0.625 0.5 0  0.65625 0.5 0  0.6875 0.5 0  0.71875 0.5 0  0.75 0.5 0  0.78125 0.5 0  0.8125 0.5 0  0.84375 0.5 0  0.875 0.5 0  0.90625 0.5 0  0.9375 0.5 0  0.96875 0.5 0  1 0.5 0  0 0.53125 0  0.03125 0.53125 0  0.0625 0.53125 0  0.09375 0.53125 0  0.125 0.53125 0  0.15625 0.53125 0  0.1875 0.53125 0  0.21875 0.53125 0  0.25 0.53125 0  0.28125 0.53125 0  0.3125 0.53125 0  0.34375 0.53125 0  0.375 0.53125 0  0.40625 0.53125 0  0.4375 0.53125 0  0.46875 0.53125 0  0.5 0.53125 0  0.53125 0.53125 0  0.5625 0.53125 0  0.59375 0.53125 0  0.625 0.53125 0  0.65625 0.53125 0  0.6875 0.53125 0  0.71875 0.53125 0  0.75 0.53125 0  0.78125 0.531
[...]
<PointData  Scalars="theta_dt"> 
<DataArray  type="Float64"  Name="theta_dt"  format="ascii">-1.3838834073075256e-04  6.1826863499798686e-04  2.9845273890300030e-04  -4.3590033228761964e-04  -5.6418609350669712e-04  -2.5108838194787302e-04  8.8737487846326417e-04  1.9250558232277600e-03  -2.3732509812030419e-15  -7.4892478498582546e-04  -1.8145056117312899e-03  -3.3580139943336577e-04  3.7035283120229607e-04  1.4648918144670377e-03  1.8005463425926356e-03  1.4269290359282016e-03  5.7440242784229773e-04  -6.8875255695285910e-04  -2.3342388254097468e-03  -2.3022443959004645e-03  -1.8757003934425933e-03  -1.5992973154909007e-03  -2.3358278895445213e-03  -2.7351066503393024e-04  -5.2360672773454301e-04  3.6554176970342035e-04  6.5821343658827968e-04  2.2097832643219757e-03  1.9642032075242715e-03  3.0421197059394209e-03  4.3499461653680833e-03  3.4228408019513746e-03  2.8545637281907899e-03  -4.8112120620159068e-04  -1.4681976152008903e-04  6.7238842482136016e-04  2.7337066722369702e-04  -4.5395318224902018e-04  -5.8121610220662485e-04  3.3580139943290840e-04  9.1416037011974661e-04  2.0047821766390264e-03  -2.1738021457113427e-15  -8.1448148584787054e-04  -1.9250558232327369e-03  -3.1386937473386415e-04  3.3720372828288295e-04  1.3646044345285849e-03  1.7245540743010593e-03  1.3667053296196172e-03  5.3507849009502568e-04  -6.2710450819265383e-04  -2.1817838813272964e-03  -2.4425104844974436e-03  -2.0398887499570094e-03  -1.4648918144688529e-03  -2.4325664036087364e-03  -2.8176660940877271e-04  6.2903613672997849e-04  3.7657568136817567e-04  6.8547340299148385e-04  2.0240723124467352e-03  2.1361386070322128e-03  3.2274632919443371e-03  4.0658403608617895e-03  3.1164732182277443e-03  -1.1916036926520731e-15  -4.3935679724255654e-04  -1.5290031464144314e-04  7.3916426909189021e-04  2.5465554594502070e-04  -4.6343456164602611e-04  -6.1826863499951298e-04  3.1386937473343643e-04  9.7243810358794123e-04  2.0466545572464232e-03  -2.0249823355758830e-15  -8.9536879272656561e-04  -2.0047821766442089e-03  -2.8934932243190409e-04  3.0886501001744810e-04  1.3070111452876921e-03  1.7116250407305919e-03  1.3564590988107920e-03  5.1249544004267197e-04  -5.7440242784748282e-04  -2.0113389154013278e-03  -2.5436672674582911e-03  -2.2424729832184994e-03  -1.3646044345302769e-03  -2.4833735922856798e-03  -2.9972923380170102e-04  5.8795222191925845e-04  4.0058238512246741e-04  6.9979037146854098e-04  1.8855030972893014e-03  2.3482815495603332e-03  3.3611289633138051e-03  3.7482094407241210e-03  6.0845651347935100e-04  -1.2675684409281302e-15  -4.0003136899388809e-04  -1.5609382875198384e-04  8.1308376355597640e-04  2.4390777894140847e-04  -1.0230237288106872e-03  -6.7238842482301997e-04  2.8934932243150977e-04  1.0575599144049990e-03  1.1760396136797830e-03  -1.9395177200363539e-15  -9.8490938780779061e-04  -2.0466545572517141e-03  -2.6423194394536515e-04  2.8771992455556804e-04  1.2972124435675107e-03  1.7632905987266794e-03  1.3974039404502999e-03  5.0865324637199298e-04  -5.3507849009985591e-04  -1.8367417869953038e-03  -2.5967949364902212e-03  -2.4667295878735536e-03  -1.3070111452893125e-03  -4.7066602601114718e-04  -3.2596586011434211e-04  5.4202031395678824e-04  4.3564713410466997e-04  3.0843962273477449e-03  1.8059252192617421e-03  2.5831194499584399e-03  3.4313303412302656e-03  8.2152912684147112e-05  6.2116488799122428e-04  -1.3785243162977336e-15  -3.6641259401479312e-04  2.2570139887252217e-04  8.8798414468955567e-04  2.4207919501410553e-04  -9.5620750432111497e-04  -7.3916426909371546e-04  2.6423194394500503e-04  1.1625876833910962e-03  1.0992295411239783e-03  -1.9249770975725264e-15  -1.0756381562758933e-03  -1.5270234803360736e-03  -2.4058138381327030e-04  2.7557667159814887e-04  1.3363689195137706e-03  1.8757003934392925e-03  1.4864884567461656e-03  5.2400699101522001e-04  -5.1249544004729826e-04  -1.6723408768258413e-03  -2.9454199010605798e-03  -2.6939620017606210e-03  -1.2972124435691190e-03  -4.3992565707548671e-04  -3.5833799013470596e-04  4.9496947154035521e-04  4.7891186637843736e-04  2.8829466373359431e-03  1.7923861437792574e-03  2.8210735698012577e-03  -3.0161861278299077e-04  8.1537009836081577e-05  4.7095423743890772e-04  -1.5154275134232543e-15  -3.4132776613379035e-04  2.1096027908226197e-04  9.5756243085577057e-04  2.4938637759908859e-04  -8.8150681701334229e-04  -8.1308376355798402e-04  2.4058138381294252e-04  1.2788512765055508e-03  1.0133557094923517e-03  -1.9830827068672608e-15  -1.1599201334893815e-03  -1.4272897783802075e-03  -2.2036284088520027e-04  2.7351066503365518e-04  1.4215624525657463e-03  2.0398887499534207e-03  1.6166073699500274e-03  5.5741244235178971e-04  -5.0865324637658447e-04  -1.5317967695780692e-03  -2.7530472006207676e-03  -2.9050482696859796e-03  -1.3363689195154279e-03  -4.0555785636344952e-04  -3.9417327626207322e-04  4.5066632985572619e-04  5.2680504051554533e-04  2.6577255484954766e-03  1.8464894830382363e-03  -8.7459133823680101e-05  -3.0791829436430725e-04  8.3998211916132623e-05  4.4019504469797698e-04  -1.6669765538372841e-15  -3.2692198797311601e-04  1.9447967443225679e-04  1.0159026909092742e-03  2.6528476186443863e-04  -8.0498636700745410e-04  -8.8798414469174771e-04  2.2036284088490003e-04  1.3966576481449417e-03  9.2538992929667020e-04  -2.1095042508476209e-15  -1.2305891990756208e-03  -1.3157872781900874e-03  -2.0527666746958113e-04  2.8176660940848941e-04  1.5459981052879767e-03  2.2424729832145542e-03  1.7771549314447915e-03  6.0620522030842999e-04  -5.2400699101994995e-04  -1.4269290359324549e-03  -2.5379740944719924e-03  -3.0820406683643563e-03  -1.4215624525675086e-03  -3.7035283120266882e-04  -4.3048408450596242e-04  4.1279217520585486e-04  5.7533374086142096e-04  2.4270179112567012e-03  1.2588340011865308e-04  -9.3034654549510734e-05  -7.8308155839186658e-05  8.9353098832978649e-05  4.0580619892986025e-04  -1.8205365987176506e-15  -3.2447104403322157e-04  1.7759759034925889e-04  1.0579763887156499e-03  2.8850631111138319e-04  -7.3293459993434382e-04  -9.5756243085813456e-04  2.0527666746930124e-04  1.5060932119441526e-03  8.4256122266235288e-04  -2.2941584937201513e-15  -1.2815541571852963e-03  -1.2015684965585825e-03  -1.9661294178847076e-04  2.9972923380139973e-04  1.6995333609680146e-03  2.4667295878692146e-03  1.9548777998379678e-03  6.6640831704980130e-04  -5.5741244235682139e-04  -1.3667053296236922e-03  -2.3176616521130306e-03  -3.2096836492010944e-03  -1.5459981052898938e-03  -3.3720372828322209e-04  -4.6421480481316849e-04  3.8453217313495015e-04  6.2041420305450443e-04  7.7234818892901256e-05  1.1495591295753573e-04  -1.0117838959524219e-04  -7.3193655390601492e-05  9.7174571013794748e-05  3.7057961604023304e-04  -1.9631853354086969e-15  -3.3426523209697764e-04  1.6170139541100110e-04  1.0800735474684323e-03  3.1715828040570500e-04  -6.7133852197786268e-04  -1.0159026909117819e-03  1.9661294178820285e-04  1.5978531503234316e-03  7.7175208531385289e-04  -2.5219946144107664e-15  -1.3083210169788212e-03  -1.0940199255706424e-03  -1.9513892867247052e-04  3.2596586011401419e-04  1.8694937501815619e-03  2.6939620017558826e-03  2.1349589905348175e-03  7.3305191437019553e-04  -6.0620522031390217e-04  -1.3564590988148358e-03  -2.1102151358035437e-03  -3.2767219025109876e-03  -1.6995333609701219e-03  -3.0886501001775861e-04  -4.9249746457591945e-04  3.6830294794014786e-04  -2.3686666238543267e-05  8.1940412256009893e-05  1.0466657514566157e-04  -1.1122655838837685e-04  -6.7475632535166904e-05  1.0682511492789733e-04  3.3741021433193540e-04  -2.0827939784698186e-15  -3.5557464425327166e-04  1.4811195406343742e-04  1.0230237288064970e-03  3.4887542466308541e-04  -6.2537828057573040e-04  -1.0579763887182618e-03  1.9513892867220451e-04  1.6640283767375898e-03  7.1891747061138625e-04  -2.7742045422085825e-15  -1.8397219058797795e-03  -1.0020781116251282e-03  -2.0102921503584281e-04  3.5833799013434585e-04  2.0417094562276985e-03  2.9050482696808700e-03  2.3022443958936015e-03  8.0057984966790661e-04  -6.6640831705581677e-04  -1.3974039404544656e-03  -1.9328719239787146e-03  -2.2322852588989345e-03  -1.8694937501838795e-03  -2.8771992455585747e-04  -5.1289428966595568e-04  -6.5387591811710006e-05  -2.5760064961819148e-05  8.5333981516372360e-05  9.5870359872583029e-05  -1.2234967582091993e-04  -6.1618314512923279e-05  1.1750806974826401e-04  3.0905414290732975e-04  -2.1690530712227331e-15  -3.8669966649149422e-04  1.3797212007440613e-04  9.5620750431719829e-04  3.8101344468838039e-04  -5.9898411733925138e-04  -1.0800735474710986e-03  2.0102921503556900e-04  1.6987836884837652e-03  6.8857547495492638e-04  -3.0297612103742036e-15  -1.7195650919175532e-03  -9.3347523780463527e-04  -2.1384482966552162e-04  3.9417327626167689e-04  2.2016882640287579e-03  3.0820406683589349e-03  2.4425104844901626e-03  8.6330954389974819e-04  -7.3305191437681274e-04  -1.4864884567505972e-03  -1.8005463425958023e-03  -2.0864891558537457e-03  -2.0417094562302294e-03  -2.7557667159842583e-04  -7.1497480160121516e-16  -6.2627900876601625e-05  -2.8318333401294723e-05  8.7116288339744263e-05  8.9307017030179462e-05  -1.3362039325657293e-04  -5.6103055339991597e-05  1.2833278376287398e-04  2.8789610929337540e-04  -2.2143564547095838e-15  -4.2510335661445018e-04  1.3214899066227759e-04  8.8150681700973146e-04  4.1086787693950098e-04  -5.9449351546328824e-04  -2.2570139887295048e-04  2.1384482966523032e-04  1.8397219058750225e-03  6.8341320398635657e-04  -3.2671591343927824e-15  -1.5852295071661115e-03  -8.9407780657126384e-04  -2.3256361399516952e-04  4.3048408450552949e-04  2.3358278895416256e-03  3.2096836491954488e-03  2.5436672674507082e-03  9.1590737112733805e-04  -8.0057984967513325e-04  -1.6166073699548462e-03  -1.7245540743040929e-03  -1.9234887889897066e-03  -2.2016882640314875e-03  9.9978057954784578e-05  -6.5097968319986639e-16  -6.2158377627114837e-05  -3.1150284263395888e-05  2.7678536632008444e-04  8.5537803965268590e-05  -1.4409026258391136e-04  -5.1388135112963857e-05  1.3838834073037133e-04  2.7574542043855803e-04  -4.7095423744240438e-04  -4.6761545646815657e-04  1.3115826571950158e-04  8.0498636700415606e-04  4.3590033228223956e-04  -6.1243835645974614e-04  -2.1096027908266223e-04  2.3256361399485263e-04  1.7195650919131079e-03  7.0404209389251138e-04  -3.4662134282901631e-15  -1.4476214105413436e-03  -8.8737487846478780e-04  -2.5565983501542143e-04  4.6421480481270163e-04  2.4325664036057210e-03  3.2767219025052236e-03  2.5967949364824800e-03  9.5383975411665047e-04  -8.6330954390754111e-04  -1.7771549314500891e-03  -1.7116250407336029e-03  -1.7565176154558941e-03  3.7195267630258597e-05  9.2167588353606191e-05  -5.9627112486729922e-16  -6.4034633926137946e-05  -3.4019814154810396e-05  2.5870782554498302e-04  8.4896524485841851e-05  -1.5286907754097931e-04  -4.7870072291186560e-05  1.4681976151968460e-04  2.7367814875895130e-04  -4.4019504470124541e-04  -5.1069167749640497e-04  1.3511728993505340e-04  7.3293459993134188e-04  4.5395318224341724e-04  -6.5148130829847592e-04  -1.9447967443262575e-04  2.5565983501507313e-04  1.5852295071620130e-03  7.4892478498191301e-04  -3.6097669572051747e-15  -1.3180494265211391e-03  -9.1416037012131588e-04  -2.8122687951329648e-04  4.9249746457542419e-04  2.4833735922826007e-03  2.3342388254027902e-03  8.7530700880667823e-04  9.7376188914370665e-04  -9.1590737113560574e-04  -1.9548777998437952e-03  -1.7632905987297815e-03  -1.3449759653916388e-05  3.4765952178482806e-05  8.4166850071546243e-05  -5.5545004289023112e-16  -6.8116842530512313e-05  -3.6685447746063748e-05  2.3849709482725036e-04  8.7459133822065006e-05  -1.5920016360852573e-04  -4.5849710309583302e-05  1.5290031464102193e-04  2.8193914864531203e-04  -4.0580619893287363e-04  -5.5070708981209667e-04  1.4373101862769888e-04  6.7133852197511304e-04  4.6343456164030613e-04  -7.0850835040143557e-04  -1.7759759034959594e-04  2.8122687951291327e-04  1.4476214105376014e-03  8.1448148584361516e-04  -3.6851614502814741e-15  -1.2072800956234515e-03  -9.7243810358961134e-04  -3.0713319003711101e-04  5.1289428966543992e-04  2.9454199010554016e-03  2.1817838813207929e-03  8.1813853074438100e-04  -8.7530700881457968e-04  -9.5383975412526077e-04  -2.1349589905411818e-03  -2.2702452464847897e-05  -1.2571322394781050e-05  3.2049972110447611e-05  7.6633343263006394e-05  -5.3200720907729913e-16  -7.4079411214261149e-05  -3.8920538109594244e-05  2.1779401611129526e-04  9.3034654547792639e-05  -1.6252525793600603e-04  -4.5505973657527879e-05  1.5609382875155384e-04  2.9991277241643317e-04  -3.7057961604298437e-04  -5.8425936149451082e-04  1.5631243078239392e-04  6.2537828057316843e-04  -4.1657773266186234e-04  -7.7887131550355838e-04  -1.6170139541130799e-04  3.0713319003669267e-04  1.3180494265177328e-03  8.9536879272188793e-04  -1.1760396136859272e-03  -1.1246289698227585e-03  -1.0575599144068142e-03  -3.3119871093108570e-04  5.2360672773401652e-04  2.7530472006159264e-03  2.0113389153953317e-03  7.5422404535978142e-04  -8.1813853075176615e-04  -9.7376188915249660e-04  1.9112132720761558e-05  -2.0928895161613580e-05  -1.1589227588984199e-05  2.9267828806239344e-05  7.0193050519128848e-05  -5.2801873508950720e-16  -8.1436342184942759e-05  -4.0532435561523370e-05  1.9829996706658274e-04  1.0117838959337370e-04  -2.7678536632182784e-04  -4.6879575623626675e-05  5.5836029951988973e-04  3.2616546467628785e-04  -3.3741021433444078e-04  -6.0845651348164105e-04  1.7183603908699311e-04  5.9898411733679783e-04  -3.8937000470891392e-04  -8.5676167939429900e-04  -1.4811195406371847e-04  3.3119871093063435e-04  1.2072800956203311e-03  9.8490938780264521e-04  -1.0992295411297213e-03  -1.0771638730454169e-03  -1.1625876833930924e-03  -3.5137725835784347e-04  2.2322852588961650e-03  2.5379740944675286e-03  1.8367417869898260e-03  6.8875255694664217e-04  -7.5422404536658913e-04  8.2218890232166732e-06  1.7401466563537155e-05  -1.9112132721455963e-05  -1.0583208244364307e-05  2.6648158622603421e-05  6.5387591810895187e-05  -5.4395702877627361e-16  -8.9580314366810937e-05  -4.1379006120935564e-05  1.8163476906488503e-04  1.1122655838632284e-04  -2.5870782554661284e-04  -4.9868149075938942e-05  5.2189239944277458e-04  3.5855741770765581e-04  -3.0905414290962441e-04  -6.2116488799356204e-04  1.8902035612064339e-04  5.9449351546085334e-04  -3.5895170445782247e-04  -9.3568562204766957e-04  -1.3797212007466802e-04  3.5137725835736474e-04  1.1246289698198519e-03  1.0756381562702735e-03  -1.0133557094976463e-03  -1.0690883432124983e-03  -1.2788512765077463e-03  -3.6592957790229581e-04  2.0864891558511596e-03  2.3176616521089544e-03  1.6723408768208560e-03  6.2710450818699321e-04  -1.7256301176006200e-06  7.8748832385079133e-06  1.5939041278797215e-05  -1.7401466564169408e-05  -9.6359389655765272e-06  2.4408638130513692e-05  6.2627900875821189e-05  -5.7863429523557360e-16  -9.7832354302765289e-05  7.8308155838853415e-05  1.6919994287816734e-04  1.2234967581866042e-04  -2.3849709482875244e-04  -5.4233328860417624e-05  4.8112120619978011e-04  3.9441464750294931e-04  -2.8789610929551301e-04  -1.4031153186558633e-04  2.0643270322436998e-04  6.1243835645723795e-04  -3.2779239244188675e-04  -1.0090015729706516e-03  -1.3214899066252831e-04  3.6592957790179724e-04  1.0771638730426322e-03  1.1599201334833217e-03  -9.2538992930150433e-04  -1.1013588723791032e-03  -1.3966576481473391e-03  -3.7357247434260466e-04  1.9234887889873215e-03  2.1102151357998322e-03  1.5317967695735030e-03  -2.0041197985571229e-16  -1.8766821587214394e-06  7.8158450029017354e-06  1.4847844869072586e-05  -1.5939041279376331e-05  -8.8261313132147386e-06  2.2737607995864727e-05  6.2158377626340242e-05  -6.2928471589430023e-16  -1.0549804021022270e-04  7.3193655390289947e-05  1.6205883956415726e-04  1.3362039325410534e-04  -2.1779401611266694e-04  -5.9619317358387189e-05  4.3935679724090303e-04  4.3074769059981013e-04  -2.7574542044060538e-04  -1.3114743669596031e-04  2.2260780475620202e-04  6.5148130829580737e-04  -2.9845273890668388e-04  -1.0704758040647998e-03  -1.3115826571975052e-04  3.7357247434209568e-04  1.0690883432097349e-03  1.2305891990691915e-03  -8.4256122266675474e-04  -1.1715705123881025e-03  -1.5060932119467377e-03  4.7066602601067361e-04  1.7565176154537155e-03  1.9328719239753136e-03  -1.7508845495039651e-16  -2.1262224066572616e-16  -2.0630581148651816e-06  8.0517669973085760e-06  1.4221189845454835e-05  -1.4847844869612070e-05  -8.2218890233381513e-06  2.1777964599715084e-05  6.4034633925339973e-05  -6.9177986994390656e-16  -1.1192559302837038e-04  6.7475632534879767e-05  1.6084387958792970e-04  1.4409026258125043e-04  -1.9829996706783175e-04  -6.5581496516262574e-05  4.0003136899238235e-04  4.6449906584814622e-04  -2.7367814876098315e-04  -1.2090195795251927e-04  2.3617036402224373e-04  7.0850835039853349e-04  -2.7337066722707095e-04  -1.1148096520723762e-03  -1.3511728993530981e-04  1.5270234803334531e-03  1.1013588723762556e-03  1.2815541571786007e-03  -7.7175208531788547e-04  -1.2741232642253552e-03  -1.5978531503261747e-03  4.3992565707504409e-04  1.5992973154889179e-03  1.6222139600499277e-06  -1.5988965318839339e-16  -2.2142800915195529e-16  -2.2693724881075748e-06  8.5650672303472220e-06  1.4114573159052352e-05  -1.4221189845971546e-05  -7.8748832386242668e-06  2.1614694546544803e-05  6.8116842529663478e-05  -7.6096072784645155e-16  -1.1656100114374826e-04  6.1618314512660956e-05  1.6569896676614645e-04  1.5286907753815626e-04  -1.8163476906602900e-04  -7.1622791773341457e-05  3.6641259401341418e-04  4.9279904444272406e-04  -2.8193914864740513e-04  -1.1040689194671692e-04  2.4595138007388941e-04  7.7887131550036812e-04  -2.5465554594816375e-04  -1.1380938445399247e-03  -1.4373101862797161e-04  1.4272897783777581e-03  1.1715705123850734e-03  1.3083210169719858e-03  -7.1891747061514214e-04  -1.4006582453948725e-03  -1.6640283767404465e-03  4.0555785636304175e-04  -2.2257947983838370e-17  1.7256301175232507e-06  -1.4557843933298697e-16  -2.2605280978335989e-16  -2.4784245832446504e-06  9.3148054704747669e-06  1.4540622837449077e-05  -1.4114573159565188e-05  -7.8158450030172198e-06  2.2267136073215591e-05  7.4079411213338032e-05  -8.3105959231536564e-16  -1.1899552328822014e-04  5.6103055339752774e-05  1.7626227768706063e-04  1.5920016360558578e-04  -1.6919994287923300e-04  -7.7234818893229972e-05  3.4132776613250568e-04  5.1320835948902668e-04  -2.9991277241865990e-04  -1.0052472252391826e-04  2.5108838194739657e-04  8.5676167939079020e-04  -2.4390777894441875e-04  -9.7086973383143471e-04  -1.5631243078269047e-04  1.3157872781878290e-03  1.2741232642220614e-03  -3.3125630423389041e-15  -6.8857547495852355e-04  -1.5407298827100032e-03  -1.6987836884866814e-03  -1.1959133383980458e-17  -2.2722833037376397e-17  1.8766821586372962e-06  -1.3334397680557880e-16  -2.7097639409894060e-06  -2.6726223467133512e-06  1.0239871959642785e-05  1.5467587700377228e-05  -1.4540622837977387e-05  -8.0517669974275485e-06  2.3686666238371299e-05  8.1436342183927987e-05  -8.9617753668532061e-16  -3.7195267630528659e-05  5.1388135112745119e-05  1.9169129491715807e-04  1.6252525793300466e-04  -1.6205883956517807e-04  -8.1940412256358654e-05  3.2692198797188555e-04  5.2392735729827917e-04  -3.2616546467870947e-04  -9.2076589981544607e-05  9.7086973382903732e-04  9.3568562204383681e-04  -2.4207919501709343e-04  -9.0745981648647956e-04  -1.7183603908731916e-04  1.2015684965565212e-03  1.4006582453912517e-03  -3.0962113100774390e-15  -6.8341320398992696e-04  -1.6826602232374937e-03  -2.2257947983838370e-17  -1.1869475402651084e-17  2.7097639408679110e-06  2.0630581147726826e-06  -1.2421516747485659e-16  -2.5327825174936052e-06  -2.8354540093890839e-06  1.1263901651396822e-05  1.6821534104955447e-05  -1.5467587700939227e-05  -8.5650672304737687e-06  2.5760064961632127e-05  8.9580314365694642e-05  -9.5077787276743314e-16  -3.4765952178735195e-05  4.7870072290982818e-05  2.1072842819440813e-04  -1.4609269367134246e-04  -1.6084387958894278e-04  -8.5333981516735554e-05  3.2