<?xml version="1.0"?>
<VTKFile type="UnstructuredGrid"  version="0.1"  >
<UnstructuredGrid>
<Piece  NumberOfPoints="1089" NumberOfCells="2048">
<Points>
<DataArray  type="Float64"  NumberOfComponents="3"  format="ascii">0 0 0  0.03125 0 0  0.0625 0 0  0.09375 0 0  0.125 0 0  0.15625 0 0  0.1875 0 0  0.21875 0 0  0.25 0 0  0.28125 0 0  0.3125 0 0  0.34375 0 0  0.375 0 0  0.40625 0 0  0.4375 0 0  0.46875 0 0  0.5 0 0  0.53125 0 0  0.5625 0 0  0.59375 0 0  0.625 0 0  0.65625 0 0  0.6875 0 0  0.71875 0 0  0.75 0 0  0.78125 0 0  0.8125 0 0  0.84375 0 0  0.875 0 0  0.90625 0 0  0.9375 0 0  0.96875 0 0  1 0 0  0 0.03125 0  0.03125 0.03125 0  0.0625 0.03125 0  0.09375 0.03125 0  0.125 0.03125 0  0.15625 0.03125 0  0.1875 0.03125 0  0.21875 0.03125 0  0.25 0.03125 0  0.28125 0.03125 0  0.3125 0.03125 0  0.34375 0.03125 0  0.375 0.03125 0  0.40625 0.03125 0  0.4375 0.03125 0  0.46875 0.03125 0  0.5 0.03125 0  0.53125 0.03125 0  0.5625 0.03125 0  0.59375 0.03125 0  0.625 0.03125 0  0.65625 0.03125 0  0.6875 0.03125 0  0.71875 0.03125 0  0.75 0.03125 0  0.78125 0.03125 0  0.8125 0.03125 0  0.84375 0.03125 0  0.875 0.03125 0  0.90625 0.03125 0  0.9375 0.03125 0  0.96875 0.03125 0  1 0.03125 0  0 0.0625 0  0.03125 0.0625 0  0.0625 0.0625 0  0.09375 0.0625 0  0.125 0.0625 0  0.15625 0.0625 0  0.1875 0.0625 0  0.21875 0.0625 0  0.25 0.0625 0  0.28125 0.0625 0  0.3125 0.0625 0  0.34375 0.0625 0  0.375 0.0625 0  0.40625 0.0625 0  0.4375 0.0625 0  0.46875 0.0625 0  0.5 0.0625 0  0.53125 0.0625 0  0.5625 0.0625 0  0.59375 0.0625 0  0.625 0.0625 0  0.65625 0.0625 0  0.6875 0.0625 0  0.71875 0.0625 0  0.75 0.0625 0  0.78125 0.0625 0  0.8125 0.0625 0  0.84375 0.0625 0  0.875 0.0625 0  0.90625 0.0625 0  0.9375 0.0625 0  0.96875 0.0625 0  1 0.0625 0  0 0.09375 0  0.03125 0.09375 0  0.0625 0.09375 0  0.09375 0.09375 0  0.125 0.09375 0  0.15625 0.09375 0  0.1875 0.09375 0  0.21875 0.09375 0  0.25 0.09375 0  0.28125 0.09375 0  0.3125 0.09375 0  0.34375 0.09375 0  0.375 0.09375 0  0.40625 0.09375 0  0.4375 0.09375 0  0.46875 0.09375 0  0.5 0.09375 0  0.53125 0.09375 0  0.5625 0.09375 0  0.59375 0.09375 0  0.625 0.09375 0  0.65625 0.09375 0  0.6875 0.09375 0  0.71875 0.09375 0  0.75 0.09375 0  0.78125 0.09375 0  0.8125 0.09375 0  0.84375 0.09375 0  0.875 0.09375 0  0.90625 0.09375 0  0.9375 0.09375 0  0.96875 0.09375 0  1 0.09375 0  0 0.125 0  0.03125 0.125 0  0.0625 0.125 0  0.09375 0.125 0  0.125 0.125 0  0.15625 0.125 0  0.1875 0.125 0  0.21875 0.125 0  0.25 0.125 0  0.28125 0.125 0  0.3125 0.125 0  0.34375 0.125 0  0.375 0.125 0  0.40625 0.125 0  0.4375 0.125 0  0.46875 0.125 0  0.5 0.125 0  0.53125 0.125 0  0.5625 0.125 0  0.59375 0.125 0  0.625 0.125 0  0.65625 0.125 0  0.6875 0.125 0  0.71875 0.125 0  0.75 0.125 0  0.78125 0.125 0  0.8125 0.125 0  0.84375 0.125 0  0.875 0.125 0  0.90625 0.125 0  0.9375 0.125 0  0.96875 0.125 0  1 0.125 0  0 0.15625 0  0.03125 0.15625 0  0.0625 0.15625 0  0.09375 0.15625 0  0.125 0.15625 0  0.15625 0.15625 0  0.1875 0.15625 0  0.21875 0.15625 0  0.25 0.15625 0  0.28125 0.15625 0  0.3125 0.15625 0  0.34375 0.15625 0  0.375 0.15625 0  0.40625 0.15625 0  0.4375 0.15625 0  0.46875 0.15625 0  0.5 0.15625 0  0.53125 0.15625 0  0.5625 0.15625 0  0.59375 0.15625 0  0.625 0.15625 0  0.65625 0.15625 0  0.6875 0.15625 0  0.71875 0.15625 0  0.75 0.15625 0  0.78125 0.15625 0  0.8125 0.15625 0  0.84375 0.15625 0  0.875 0.15625 0  0.90625 0.15625 0  0.9375 0.15625 0  0.96875 0.15625 0  1 0.15625 0  0 0.1875 0  0.03125 0.1875 0  0.0625 0.1875 0  0.09375 0.1875 0  0.125 0.1875 0  0.15625 0.1875 0  0.1875 0.1875 0  0.21875 0.1875 0  0.25 0.1875 0  0.28125 0.1875 0  0.3125 0.1875 0  0.34375 0.1875 0  0.375 0.1875 0  0.40625 0.1875 0  0.4375 0.1875 0  0.46875 0.1875 0  0.5 0.1875 0  0.53125 0.1875 0  0.5625 0.1875 0  0.59375 0.1875 0  0.625 0.1875 0  0.65625 0.1875 0  0.6875 0.1875 0  0.71875 0.1875 0  0.75 0.1875 0  0.78125 0.1875 0  0.8125 0.1875 0  0.84375 0.1875 0  0.875 0.1875 0  0.90625 0.1875 0  0.9375 0.1875 0  0.96875 0.1875 0  1 0.1875 0  0 0.21875 0  0.03125 0.21875 0  0.0625 0.21875 0  0.09375 0.21875 0  0.125 0.21875 0  0.15625 0.21875 0  0.1875 0.21875 0  0.21875 0.21875 0  0.25 0.21875 0  0.28125 0.21875 0  0.3125 0.21875 0  0.34375 0.21875 0  0.375 0.21875 0  0.40625 0.21875 0  0.4375 0.21875 0  0.46875 0.21875 0  0.5 0.21875 0  0.53125 0.21875 0  0.5625 0.21875 0  0.59375 0.21875 0  0.625 0.21875 0  0.65625 0.21875 0  0.6875 0.21875 0  0.71875 0.21875 0  0.75 0.21875 0  0.78125 0.21875 0  0.8125 0.21875 0  0.84375 0.21875 0  0.875 0.21875 0  0.90625 0.21875 0  0.9375 0.21875 0  0.96875 0.21875 0  1 0.21875 0  0 0.25 0  0.03125 0.25 0  0.0625 0.25 0  0.09375 0.25 0  0.125 0.25 0  0.15625 0.25 0  0.1875 0.25 0  0.21875 0.25 0  0.25 0.25 0  0.28125 0.25 0  0.3125 0.25 0  0.34375 0.25 0  0.375 0.25 0  0.40625 0.25 0  0.4375 0.25 0  0.46875 0.25 0  0.5 0.25 0  0.53125 0.25 0  0.5625 0.25 0  0.59375 0.25 0  0.625 0.25 0  0.65625 0.25 0  0.6875 0.25 0  0.71875 0.25 0  0.75 0.25 0  0.78125 0.25 0  0.8125 0.25 0  0.84375 0.25 0  0.875 0.25 0  0.90625 0.25 0  0.9375 0.25 0  0.96875 0.25 0  1 0.25 0  0 0.28125 0  0.03125 0.28125 0  0.0625 0.28125 0  0.09375 0.28125 0  0.125 0.28125 0  0.15625 0.28125 0  0.1875 0.28125 0  0.21875 0.28125 0  0.25 0.28125 0  0.28125 0.28125 0  0.3125 0.28125 0  0.34375 0.28125 0  0.375 0.28125 0  0.40625 0.28125 0  0.4375 0.28125 0  0.46875 0.28125 0  0.5 0.28125 0  0.53125 0.28125 0  0.5625 0.28125 0  0.59375 0.28125 0  0.625 0.28125 0  0.65625 0.28125 0  0.6875 0.28125 0  0.71875 0.28125 0  0.75 0.28125 0  0.78125 0.28125 0  0.8125 0.28125 0  0.84375 0.28125 0  0.875 0.28125 0  0.90625 0.28125 0  0.9375 0.28125 0  0.96875 0.28125 0  1 0.28125 0  0 0.3125 0  0.03125 0.3125 0  0.0625 0.3125 0  0.09375 0.3125 0  0.125 0.3125 0  0.15625 0.3125 0  0.1875 0.3125 0  0.21875 0.3125 0  0.25 0.3125 0  0.28125 0.3125 0  0.3125 0.3125 0  0.34375 0.3125 0  0.375 0.3125 0  0.40625 0.3125 0  0.4375 0.3125 0  0.46875 0.3125 0  0.5 0.3125 0  0.53125 0.3125 0  0.5625 0.3125 0  0.59375 0.3125 0  0.625 0.3125 0  0.65625 0.3125 0  0.6875 0.3125 0  0.71875 0.3125 0  0.75 0.3125 0  0.78125 0.3125 0  0.8125 0.3125 0  0.84375 0.3125 0  0.875 0.3125 0  0.90625 0.3125 0  0.9375 0.3125 0  0.96875 0.3125 0  1 0.3125 0  0 0.34375 0  0.03125 0.34375 0  0.0625 0.34375 0  0.09375 0.34375 0  0.125 0.34375 0  0.15625 0.34375 0  0.1875 0.34375 0  0.21875 0.34375 0  0.25 0.34375 0  0.28125 0.34375 0  0.3125 0.34375 0  0.34375 0.34375 0  0.375 0.34375 0  0.40625 0.34375 0  0.4375 0.34375 0  0.46875 0.34375 0  0.5 0.34375 0  0.53125 0.34375 0  0.5625 0.34375 0  0.59375 0.34375 0  0.625 0.34375 0  0.65625 0.34375 0  0.6875 0.34375 0  0.71875 0.34375 0  0.75 0.34375 0  0.78125 0.34375 0  0.8125 0.34375 0  0.84375 0.34375 0  0.875 0.34375 0  0.90625 0.34375 0  0.9375 0.34375 0  0.96875 0.34375 0  1 0.34375 0  0 0.375 0  0.03125 0.375 0  0.0625 0.375 0  0.09375 0.375 0  0.125 0.375 0  0.15625 0.375 0  0.1875 0.375 0  0.21875 0.375 0  0.25 0.375 0  0.28125 0.375 0  0.3125 0.375 0  0.34375 0.375 0  0.375 0.375 0  0.40625 0.375 0  0.4375 0.375 0  0.46875 0.375 0  0.5 0.375 0  0.53125 0.375 0  0.5625 0.375 0  0.59375 0.375 0  0.625 0.375 0  0.65625 0.375 0  0.6875 0.375 0  0.71875 0.375 0  0.75 0.375 0  0.78125 0.375 0  0.8125 0.375 0  0.84375 0.375 0  0.875 0.375 0  0.90625 0.375 0  0.9375 0.375 0  0.96875 0.375 0  1 0.375 0  0 0.40625 0  0.03125 0.40625 0  0.0625 0.40625 0  0.09375 0.40625 0  0.125 0.40625 0  0.15625 0.40625 0  0.1875 0.40625 0  0.21875 0.40625 0  0.25 0.40625 0  0.28125 0.40625 0  0.3125 0.40625 0  0.34375 0.40625 0  0.375 0.40625 0  0.40625 0.40625 0  0.4375 0.40625 0  0.46875 0.40625 0  0.5 0.40625 0  0.53125 0.40625 0  0.5625 0.40625 0  0.59375 0.40625 0  0.625 0.40625 0  0.65625 0.40625 0  0.6875 0.40625 0  0.71875 0.40625 0  0.75 0.40625 0  0.78125 0.40625 0  0.8125 0.40625 0  0.84375 0.40625 0  0.875 0.40625 0  0.90625 0.40625 0  0.9375 0.40625 0  0.96875 0.40625 0  1 0.40625 0  0 0.4375 0  0.03125 0.4375 0  0.0625 0.4375 0  0.09375 0.4375 0  0.125 0.4375 0  0.15625 0.4375 0  0.1875 0.4375 0  0.21875 0.4375 0  0.25 0.4375 0  0.28125 0.4375 0  0.3125 0.4375 0  0.34375 0.4375 0  0.375 0.4375 0  0.40625 0.4375 0  0.4375 0.4375 0  0.46875 0.4375 0  0.5 0.4375 0  0.53125 0.4375 0  0.5625 0.4375 0  0.59375 0.4375 0  0.625 0.4375 0  0.65625 0.4375 0  0.6875 0.4375 0  0.71875 0.4375 0  0.75 0.4375 0  0.78125 0.4375 0  0.8125 0.4375 0  0.84375 0.4375 0  0.875 0.4375 0  0.90625 0.4375 0  0.9375 0.4375 0  0.96875 0.4375 0  1 0.4375 0  0 0.46875 0  0.03125 0.46875 0  0.0625 0.46875 0  0.09375 0.46875 0  0.125 0.46875 0  0.15625 0.46875 0  0.1875 0.46875 0  0.21875 0.46875 0  0.25 0.46875 0  0.28125 0.46875 0  0.3125 0.46875 0  0.34375 0.46875 0  0.375 0.46875 0  0.40625 0.46875 0  0.4375 0.46875 0  0.46875 0.46875 0  0.5 0.46875 0  0.53125 0.46875 0  0.5625 0.46875 0  0.59375 0.46875 0  0.625 0.46875 0  0.65625 0.46875 0  0.6875 0.46875 0  0.71875 0.46875 0  0.75 0.46875 0  0.78125 0.46875 0  0.8125 0.46875 0  0.84375 0.46875 0  0.875 0.46875 0  0.90625 0.46875 0  0.9375 0.46875 0  0.96875 0.46875 0  1 0.46875 0  0 0.5 0  0.03125 0.5 0  0.0625 0.5 0  0.09375 0.5 0  0.125 0.5 0  0.15625 0.5 0  0.1875 0.5 0  0.21875 0.5 0  0.25 0.5 0  0.28125 0.5 0  0.3125 0.5 0  0.34375 0.5 0  0.375 0.5 0  0.40625 0.5 0  0.4375 0.5 0  0.46875 0.5 0  0.5 0.5 0  0.53125 0.5 0  0.5625 0.5 0  0.59375 0.5 0  0.625 0.5 0  0.65625 0.5 0  0.6875 0.5 0  0.71875 0.5 0  0.75 0.5 0  0.78125 0.5 0  0.8125 0.5 0  0.84375 0.5 0  0.875 0.5 0  0.90625 0.5 0  0.9375 0.5 0  0.96875 0.5 0  1 0.5 0  0 0.53125 0  0.03125 0.53125 0  0.0625 0.53125 0  0.09375 0.53125 0  0.125 0.53125 0  0.15625 0.53125 0  0.1875 0.53125 0  0.21875 0.53125 0  0.25 0.53125 0  0.28125 0.53125 0  0.3125 0.53125 0  0.34375 0.53125 0  0.375 0.53125 0  0.40625 0.53125 0  0.4375 0.53125 0  0.46875 0.53125 0  0.5 0.53125 0  0.53125 0.53125 0  0.5625 0.53125 0  0.59375 0.53125 0  0.625 0.53125 0  0.65625 0.53125 0  0.6875 0.53125 0  0.71875 0.53125 0  0.75 0.53125 0  0.78125 0.531
[...]
<PointData  Scalars="theta_dt"> 
<DataArray  type="Float64"  Name="theta_dt"  format="ascii">-2.5940476660041556e+00  -1.2769525288946562e+00  -2.0296481040090691e-01  -2.2550822093874312e+00  -2.9656538050694192e+00  -1.1652478961184323e+00  -1.3142909997619527e+00  -4.1340746293292296e+00  -4.3073088426538391e+00  -1.9804632500350010e+00  -1.4388426762023915e-01  -2.4768262327441195e+00  -3.1021814379170585e+00  -4.3140277642943285e+00  -4.2632049316356460e+00  -2.6277288599456678e+00  -2.3642217376171276e-01  -1.3495695528559717e+00  -3.1342121983199496e+00  -3.3934083716954024e+00  -5.6663434850031571e+00  -3.6585838573175051e+00  -4.4626641138757570e+00  -4.5887022343211497e+00  -3.9160228611977468e+00  -2.7556768961331253e+00  -1.3495695528559726e+00  -1.9496540102201990e-01  -1.5119124369178125e-01  -2.3416205616524724e-01  -8.9469640946069950e-01  -1.1766133403268839e+00  -1.3856883888730778e+00  -2.0996872871335326e-01  -2.8330084810776772e+00  -1.3887298350140722e+00  -2.1533060446189220e-01  -2.4524795352389557e+00  -3.2388465685535679e+00  -1.2362415599212120e+00  -1.3687224751861697e+00  -4.3052876876465822e+00  -4.5697350928008946e+00  -2.1629013442356819e+00  -1.5647909433746801e-01  -2.6277288599456621e+00  -3.3737291081536154e+00  -4.7114312524089241e+00  -4.5229441155870509e+00  -2.7365564779446836e+00  -2.4621361853549684e-01  -1.4317931616117410e+00  -3.4229323754158436e+00  -3.6904484242958837e+00  -6.0115700120841344e+00  -3.9788358937318278e+00  -4.8737598188724895e+00  -4.8682726028235344e+00  -4.0782052866792906e+00  -2.8698034931166858e+00  -1.4317931616117416e+00  -2.1292539911685962e-01  -1.6442568236221494e-01  -2.4842856747682276e-01  -9.7301314573812203e-01  -1.2850016658444310e+00  -1.5037349639411395e+00  -2.1435418795515290e-01  -3.0549897810665980e+00  -1.5266465566194110e+00  -2.2424854006897785e-01  -2.6960387422037253e+00  -3.4926274437448352e+00  -1.2874406110441636e+00  -1.3973099542124325e+00  -4.3952090001872293e+00  -4.7589910668918893e+00  -2.3323761817972621e+00  -1.7201925423514708e-01  -2.7365564779446778e+00  -3.7087789115420025e+00  -5.0805969789514434e+00  -4.7102622373099221e+00  -2.7937128791404677e+00  -2.5135609758692501e-01  -1.4910909992313752e+00  -3.6911373538139078e+00  -4.0569520703612971e+00  -6.2605397040572095e+00  -4.3739797067569013e+00  -5.2556448529813657e+00  -5.0698925337117267e+00  -4.1633836995506659e+00  -2.9297429247080387e+00  -1.4910909992313761e+00  -2.2960923794484661e-01  -1.8075502914181207e-01  -2.5871725808471496e-01  -1.0696444556989542e+00  -1.6709833945061277e+00  -1.6422573732812273e+00  -6.9762105648402883e-01  -3.2411174867337245e+00  -1.6793175479124376e+00  -2.2893225101265910e-01  -2.9656538050694250e+00  -3.7054185754478355e+00  -1.3143304167812819e+00  -1.5059436249319715e+00  -2.7810969528977441e+00  -4.8583885413816974e+00  -2.4744780736468019e+00  -1.8922189354396129e-01  -2.7937128791404615e+00  -4.0796721942449903e+00  -5.3901364297778249e+00  -4.8086419493103261e+00  -8.3966313844463758e-01  -1.4825162887835802e-01  -1.5222342977740386e+00  -3.9160228611977472e+00  -4.4626641138757428e+00  -6.3912988979240879e+00  -4.8113958295855417e+00  -5.5758492361021279e+00  -5.1757835737877489e+00  -1.6770785315498984e+00  -8.7137558700314477e-01  -1.5222342977740395e+00  -2.4359836515028391e-01  -1.9883128219503265e-01  -2.6412089127063387e-01  -1.9366752405588167e-01  -1.8172519661106259e+00  -1.7709369833396766e+00  -7.5868691494116702e-01  -3.3753486477613044e+00  -1.8340144315801794e+00  -7.5236475758929500e-01  -3.2388465685535741e+00  -3.8588788062205159e+00  -1.3104814081630917e-01  -1.6377655351076874e+00  -3.0245386771730471e+00  -2.5159581728910458e+00  -2.5769587970770509e+00  -2.0665280605324118e-01  -2.2451319065378059e+00  -4.4554871052605876e+00  -5.6133693961937627e+00  -2.2451319065378121e+00  -9.1316256895546299e-01  -1.6122875005464987e-01  -1.6770785315498977e+00  -4.0782052866792924e+00  -4.8737598188724744e+00  -3.7481224236202730e+00  -5.2546163162970068e+00  -5.8067735144537282e+00  -2.3832539579618688e+00  -1.8238806374744010e+00  -9.4765094848251541e-01  -1.4825162887835824e-01  -2.5368701251107284e-01  -2.1714740100738539e-01  -1.6413824221382953e+00  -1.9771251227108774e-01  -1.9977258258763699e+00  -1.8788327411693460e+00  -8.3403318416889916e-01  -3.4458470215540462e+00  -1.9777192282441636e+00  -8.1822257447722091e-01  -3.4926274437448406e+00  -3.9394763115129710e+00  -1.4251936454698655e-01  -1.8004143438718312e+00  -3.3249098856018122e+00  -2.7361911263574705e+00  -2.6307818013007256e+00  -2.2284515381374162e-01  -2.4416582383449676e+00  -4.8045982449961757e+00  -5.7306116295826222e+00  -2.4416582383449734e+00  -1.0038500335923630e+00  -1.7724060497086447e-01  -1.8238806374744001e+00  -4.1633836995506677e+00  -5.2556448529813480e+00  -4.0762121670038436e+00  -5.6663434850031509e+00  -5.9280552344986370e+00  -2.5918707242014154e+00  -2.0050127999567997e+00  -1.0417635028077952e+00  -1.6122875005465009e-01  -2.5898558273321309e-01  -2.0768207443655946e+00  -1.7093604171093824e+00  -6.3616229927134882e-01  -2.1975066990888314e+00  -1.9566447616394675e+00  -9.1743996384965842e-01  -2.0620207284713143e+00  -2.0982133603974722e+00  -8.9948141415227911e-01  -3.7054185754478421e+00  -1.9055802463741636e+00  -1.5667316395995690e-01  -1.9804632500350019e+00  -3.6574146726422869e+00  -3.0079261322011490e+00  -7.9986489816821671e-01  -2.3642217376171287e-01  -2.6841427670292610e+00  -5.0973222513204188e+00  -3.1021814379170700e+00  -2.6841427670292690e+00  -1.1042392029607193e+00  -1.9496540102201976e-01  -2.0050127999567988e+00  -2.9627840184691379e+00  -5.5758492361021093e+00  -4.4810265552792039e+00  -6.0115700120841300e+00  -2.9627840184691512e+00  -2.8492730670430619e+00  -2.2055224008184764e+00  -1.1459441764397806e+00  -1.7724060497086463e-01  -1.7550233976401583e-01  -2.1628324551114755e+00  -1.7450625451582342e+00  -6.9184840071854747e-01  -2.3999385968621980e+00  -1.9975117321899492e+00  -1.0019535232632519e+00  -2.2425185284877580e+00  -2.1851110481864962e+00  -9.8943328844358347e-01  -3.8588788062205230e+00  -2.0723841186515881e+00  -1.7234113055449618e-01  -2.1629013442356824e+00  -3.9943316856525866e+00  -3.3087312284090409e+00  -8.6988061257704918e-01  -2.4621361853549695e-01  -2.9525681830088444e+00  -5.3084282932109250e+00  -3.3737291081536278e+00  -2.9525681830088515e+00  -1.2059605026244578e+00  -2.1292539911685929e-01  -2.2055224008184755e+00  -3.2221296156659296e+00  -5.8067735144537078e+00  -4.9291478072078547e+00  -6.2605397040572051e+00  -3.2221296156659438e+00  -3.1342121983199478e+00  -2.4086926962102844e+00  -1.2515072923452872e+00  -4.9553458040679621e-01  -1.7916792540903961e-01  -2.2080059132585772e+00  -5.6858226203293671e-01  -7.6055684268417478e-01  -2.5879865653675367e+00  -6.3616229927134860e-01  -1.0804619171166476e+00  -2.4652262112856334e+00  -2.2307498225856599e+00  -1.0805787936576634e+00  -3.9394763115129781e+00  -2.2781955128804015e+00  -1.8821700576207562e-01  -2.3323761817972630e+00  -4.3073088426538275e+00  -3.6135279064198813e+00  -9.5626968498684228e-01  -2.5135609758692512e-01  -3.2245555133953996e+00  -5.4193014506594039e+00  -3.7087789115420158e+00  -3.2245555133954067e+00  -1.3004539296282605e+00  -2.2960923794484631e-01  -2.4086926962102830e+00  -3.5421238593091591e+00  -5.9280552344986175e+00  -5.3832154764587568e+00  -6.3912988979240817e+00  -3.5421238593091751e+00  -3.4229323754158418e+00  -2.5974265950142805e+00  -1.3451931872911986e+00  -5.3891091526149337e-01  -5.6858226203293660e-01  -1.3534134688616957e+00  -6.1835278373928360e-01  -8.3661568328733982e-01  -2.7456617250995046e+00  -6.9184840071854736e-01  -1.1462899270628588e+00  -2.7117590631802830e+00  -6.9762105648402783e-01  -1.1652478961184303e+00  -2.4332559822008837e+00  -2.5060245187512629e+00  -2.0296481040090758e-01  -2.4744780736468028e+00  -4.5697350928008822e+00  -3.8966670595749031e+00  -1.0519006220347071e+00  -8.3966313844463680e-01  -3.4772166083165352e+00  -3.2803853387856421e+00  -4.0796721942450054e+00  -3.4772166083165441e+00  -1.3796851295974462e+00  -2.4359836515028357e-01  -2.5974265950142796e+00  -3.8963509451651719e+00  -3.6585838573175096e+00  -5.8050190741416765e+00  -3.3934083716954144e+00  -3.8963509451651888e+00  -3.6911373538139061e+00  -1.5564874206781756e-01  -1.4691109027129858e+00  -5.9243091951015614e-01  -6.1835278373928326e-01  -1.4718837394410145e+00  -6.7976227216436158e-01  -9.1368379895908702e-01  -2.8593735429085263e+00  -7.6055684268417445e-01  -1.1937636235313354e+00  -2.9615633225672164e+00  -7.5868691494116591e-01  -1.2362415599212098e+00  -2.6462496469104093e+00  -2.7368767384090003e+00  -2.1533060446189289e-01  -2.5769587970770518e+00  -4.7589910668918760e+00  -4.1340746293292359e+00  -1.1488005492457427e+00  -9.1316256895546211e-01  -3.6890688224956678e+00  -3.5675319851221996e+00  -4.4554871052606035e+00  -3.6890688224956767e+00  -1.4368249085645421e+00  -2.5368701251107251e-01  -2.7556768961331239e+00  -4.2552785045432051e+00  -3.9788358937318322e+00  -6.1586945228519054e+00  -3.6904484242958966e+00  -4.2552785045432255e+00  -5.4935182291375007e-01  -1.5889966051914400e-01  -1.5842235648141847e+00  -6.5167647006806595e-01  -6.7976227216436125e-01  -1.6180585927564219e+00  -7.4774132041554420e-01  -9.8527578988549658e-01  -2.9190951319582203e+00  -8.3661568328733948e-01  -1.2186968683407888e+00  -3.1936175789289534e+00  -8.3403318416889760e-01  -1.2874406110441610e+00  -2.9090524373807902e+00  -2.9513256044675868e+00  -2.2424854006897854e-01  -2.6307818013007265e+00  -4.8583885413816832e+00  -4.3052876876465875e+00  -1.2388151895310933e+00  -1.0038500335923617e+00  -3.8418519268357931e+00  -3.9218286259841411e+00  -4.8045982449961935e+00  -3.8418519268358025e+00  -1.4668347920015872e+00  -2.5898558273321276e-01  -2.8698034931166845e+00  -4.5887022343211283e+00  -4.3739797067569048e+00  -6.4137573891627842e+00  -4.0569520703613104e+00  -7.7205061720738744e-01  -5.9995750803125092e-01  -4.9553458040679554e-01  -1.6807436576832715e+00  -7.1170818902702326e-01  -7.4774132041554386e-01  -1.7798711670259650e+00  -8.1662242762584014e-01  -1.0453045085926098e+00  -1.6709833945061225e+00  -9.1368379895908691e-01  -1.2769525288946526e+00  -3.3881912945034505e+00  -9.1743996384965687e-01  -1.3143304167812795e+00  -3.1999697537777116e+00  -3.1311374869297306e+00  -2.2893225101265982e-01  -2.0853934381548349e+00  -2.8706231244625062e+00  -4.3952090001872355e+00  -1.3142909997619563e+00  -1.1042392029607184e+00  -3.9220938044782909e+00  -4.3140277642943374e+00  -5.0973222513204375e+00  -3.9220938044783007e+00  -1.4388426762023909e-01  -8.7137558700314410e-01  -2.9297429247080373e+00  -4.8682726028235122e+00  -4.8113958295855452e+00  -6.5477167258188800e+00  -1.3429886628444465e-01  -8.3963162450918205e-01  -6.4696737350127187e-01  -5.3891091526149282e-01  -1.7503518016286885e+00  -7.6747431541464395e-01  -8.1662242762583981e-01  -1.9438309393818611e+00  -8.8060914326586337e-01  -1.0885958852212159e+00  -1.8172519661106195e+00  -9.8527578988549624e-01  -1.3887298350140684e+00  -3.5285135299997865e+00  -1.0019535232632506e+00  -1.3981775246280603e+00  -3.4947474444865434e+00  -3.2608138167535898e+00  -1.3813127655731844e-01  -2.2679371548878509e+00  -3.1219014707407884e+00  -2.0853934381548411e+00  -1.3687224751861735e+00  -1.2059605026244566e+00  -2.7526204128992791e+00  -4.7114312524089357e+00  -5.3084282932109454e+00  -1.5992105837708757e+00  -1.5647909433746793e-01  -9.4765094848251485e-01  -2.3832539579618701e+00  -5.0698925337117045e+00  -5.2546163162970130e+00  -5.5195606542423004e-01  -1.3710386590471849e-01  -9.2301662718488064e-01  -6.8638438026757154e-01  -5.9243091951015536e-01  -1.7869100859593636e+00  -8.1423330438798946e-01  -8.8060914326586304e-01  -2.0961404441944018e+00  -9.3426096247697177e-01  -1.1113325704156376e+00  -1.9977258258763630e+00  -1.0453045085926094e+00  -1.5266465566194072e+00  -3.6022109437278931e+00  -1.0804619171166461e+00  -1.5205661911158583e+00  -3.7685795159546016e+00  -3.3289199874967212e+00  -1.5022251850644402e-01  -2.4931691973793284e+00  -3.4319419157313664e+00  -2.2679371548878571e+00  -1.3973099542124363e+00  -1.3004539296282593e+00  -2.9935694596030973e+00  -5.0805969789514540e+00  -5.4193014506594244e+00  -1.7391965636148559e+00  -1.7201925423514700e-01  -1.0417635028077947e+00  -2.5918707242014167e+00  -5.1757835737877258e+00  -8.4437416954346278e-01  -5.7481537361079460e-01  -4.1772695128127046e-01  -1.0153221204513170e+00  -7.1481104873967394e-01  -6.5167647006806539e-01  -1.0228844714322778e+00  -8.4795484710980751e-01  -9.3426096247697143e-01  -2.2238494840255467e+00  -9.7295346103937619e-01  -1.1434395879319879e+00  -2.1975066990888252e+00  -1.0885958852212156e+00  -1.6793175479124334e+00  -1.9725130195269120e+00  -1.1462899270628573e+00  -1.6715757674748855e+00  -3.9981832492554261e+00  -1.3981775246280641e+00  -1.6514132902043874e-01  -2.7424964638476137e+00  -3.7751503499710775e+00  -2.4931691973793355e+00  -1.3813127655731858e-01  -1.3796851295974448e+00  -3.2908650712885352e+00  -5.3901364297778374e+00  -2.7526204128992875e+00  -1.9119186310993515e+00  -1.8922189354396121e-01  -1.1459441764397800e+00  -2.8492730670430624e+00  -1.1165974734227002e-01  -8.7934399880248781e-01  -5.8682111088404054e-01  -4.5429244001413227e-01  -1.1088524763676200e+00  -7.2974077060371123e-01  -7.1170818902702238e-01  -1.1124220760815691e+00  -8.6566544355754427e-01  -9.7295346103937608e-01  -2.3159504027405182e+00  -9.9327480971687920e-01  -1.2435299154557262e+00  -2.3999385968621905e+00  -1.1113325704156372e+00  -1.8340144315801750e+00  -2.1451758136552468e+00  -1.1937636235313338e+00  -1.8387402813142288e+00  -4.1637683543141844e+00  -1.5205661911158619e+00  -1.8165614726417684e-01  -2.9951322187436569e+00  -4.1229130439557204e+00  -2.7424964638476239e+00  -1.5022251850644414e-01  -1.4368249085645406e+00  -3.6199652356106338e+00  -5.6133693961937752e+00  -2.9935694596031039e+00  -2.1031184287315625e+00  -2.0665280605324110e-01  -1.2515072923452863e+00  -5.1397885459750332e-02  -1.1399190067729198e-01  -8.9771019690208209e-01  -6.5252608952202168e-02  -4.9940886395572931e-01  -1.1957369724233406e+00  -7.8482636876480938e-02  -7.6747431541464317e-01  -1.2228982838408848e+00  -9.0959246656011808e-02  -9.9327480971687887e-01  -2.3643219205350254e+00  -1.0256144957693812e-01  -1.3670266279434220e+00  -2.5879865653675296e+00  -1.1317696407840298e-01  -1.9777192282441587e+00  -2.3582162539388660e+00  -1.2186968683407871e+00  -2.0081230116663633e+00  -4.2507338587587453e+00  -1.6715757674748892e+00  -1.9839011155567723e-01  -3.2298167768719486e+00  -4.4459652350633245e+00  -2.9951322187436671e+00  -1.6514132902043893e-01  -1.4668347920015856e+00  -3.9534324477115650e+00  -5.7306116295826355e+00  -3.2908650712885428e+00  -2.2968553829564553e+00  -2.2284515381374151e-01  -4.4749204938103049e-01  -5.5896969839886380e-02  -3.3591516805931360e-01  -5.1387802188410436e-01  -7.0964458594924909e-02  -5.4935182291374884e-01  -1.2685882076837118e+00  -8.5352569414063231e-02  -8.1423330438798835e-01  -1.3451931872912013e+00  -9.8921312063925779e-02  -9.9892960096092565e-01  -1.2639331879366917e+00  -1.1153910715308607e-01  -1.5037349639411397e+00  -2.7456617250994970e+00  -1.2308384461875345e-01  -2.0982133603974669e+00  -2.5940476660041605e+00  -1.2270319137411152e-01  -2.1654701426914684e+00  -2.4332559822008810e+00  -1.8387402813142331e+00  -2.1393503320424351e-01  -3.4265959576502496e+00  -4.7168392372634980e+00  -3.2298167768719583e+00  -1.8165614726417698e-01  -1.5992105837708719e+00  -4.2632049316356362e+00  -3.2803853387856354e+00  -3.6199652356106435e+00  -2.4768262327441253e+00  -8.7951654294260301e-02  -4.8871452430329365e-01  -6.1448176873550704e-02  -3.6531930934154472e-01  -5.5886003935181705e-01  -7.8012039220864804e-02  -5.9995750803125003e-01  -1.3211268980213116e+00  -9.3829053649789676e-02  -8.4795484710980651e-01  -1.4691109027129883e+00  -1.0874532729912600e-01  -1.0863703297834812e+00  -1.3745708535238232e+00  -1.2261621344221857e-01  -1.6422573732812273e+00  -2.8593735429085174e+00  -1.3530747509345084e-01  -2.1851110481864908e+00  -2.8330084810776830e+00  -1.3344394474880858e-01  -2.2974031500775385e+00  -2.6462496469104053e+00  -2.0081230116663673e+00  -2.2696919689896589e-01  -3.5685087255923134e+00  -4.9121875422200052e+00  -3.4265959576502611e+00  -1.9839011155567740e-01  -1.7391965636148525e+00  -4.5229441155870402e+00  -3.5675319851221907e+00  -3.9534324477115743e+00  -4.8729725535163332e-02  -8.9788634484214647e-02  -5.2700790964008737e-01  -6.7593249572766800e-02  -4.0159968599450391e-01  -6.1436121929359633e-01  -8.5813566895360474e-02  -6.4696737350127098e-01  -1.3487202839508285e+00  -1.0321234840828368e-01  -8.6566544355754316e-01  -1.5842235648141871e+00  -1.1962031132555713e-01  -1.1942593018177943e+00  -1.5110814266766917e+00  -1.3487834364757140e-01  -1.7709369833396771e+00  -2.9190951319582115e+00  -1.4883878413306070e-01  -2.2307498225856546e+00  -3.0549897810666033e+00  -1.4669645140187784e-01  -2.3925503002334887e+00  -2.9090524373807867e+00  -2.1654701426914733e+00  -2.3636914581841978e-01  -3.6430414889518326e+00  -5.0147847165063286e+00  -3.5685087255923253e+00  -2.1393503320424365e-01  -1.9119186310993477e+00  -4.7102622373099114e+00  -3.9218286259841308e+00  -1.6350971005588283e-01  -5.3218654202433616e-02  -2.5089740902618479e-01  -5.5911628973931327e-01  -7.3819865306569782e-02  -4.4176132124524531e-01  -6.7579989084128234e-01  -9.3718618201248355e-02  -6.8638438026757043e-01  -6.8261152201959374e-01  -1.1272015631194014e-01  -8.4482179164616755e-01  -1.6807436576832742e+00  -1.3063960270879332e-01  -1.3136901882131280e+00  -1.6621958403796686e+00  -1.4730318816996907e-01  -1.8788327411693462e+00  -1.4928543197923083e+00  -1.6254964906322400e-01  -1.7074288101372908e+00  -3.2411174867337298e+00  -1.6136670533693925e-01  -2.4425217025938544e+00  -3.1999697537777063e+00  -2.2974031500775434e+00  -2.4130601075710698e-01  -2.5159581728910427e+00  -2.7810969528977516e+00  -3.6430414889518445e+00  -2.2696919689896608e-01  -2.1031184287315581e+00  -4.8086419493103145e+00  -6.3406627158958923e-02  -1.7782243860361810e-01  -5.7388619143386832e-02  -2.7285956960670676e-01  -5.8227213923515331e-01  -7.9604044836991031e-02  -4.8245588780088949e-01  -7.3805383276316949e-01  -1.0106197097990453e-01  -7.1481104873967261e-01  -7.4236352949905038e-01  -1.2155238078292387e-01  -9.1877278190179412e-01  -1.7503518016286910e+00  -1.4087591122429149e-01  -1.4347058820430940e+00  -1.8153154911996494e+00  -1.5884517733833323e-01  -1.9566447616394680e+00  -1.6235304651612827e+00  -1.7528627962850601e-01  -1.8568876102643637e+00  -3.3753486477613106e+00  -1.7623162857577926e-01  -1.9055802463741633e+00  -3.4947474444865385e+00  -2.3925503002334936e+00  -7.9986489816821482e-01  -2.7361911263574674e+00  -3.0245386771730560e+00  -1.5059436249319713e+00  -2.3636914581841995e-01  -2.2968553829564513e+00  -3.6745900522915480e-02  -6.4730953789736478e-02  -1.9548223616952062e-01  -6.0885066849615747e-02  -2.9995763889994670e-01  -5.9443362037522007e-01  -8.4453985193308434e-02  -5.2025887564108497e-01  -7.9588428062552508e-01  -1.0721925271788797e-01  -7.2974077060370990e-01  -8.1608870026046088e-01  -1.2895805719261830e-01  -1.0100174047112613e+00  -1.7869100859593663e+00  -1.4945888924354644e-01  -1.5471227275713957e+00  -1.9575551263147675e+00  -1.6852294732548823e-01  -1.9975117321899496e+00  -1.7847655690208946e+00  -1.8596573697542698e-01  -2.0412977418394793e+00  -3.4458470215540520e+00  -1.9004031509108918e-01  -2.0723841186515868e+00  -3.7685795159545963e+00  -2.4425217025938593e+00  -8.6988061257704663e-01  -3.0079261322011468e+00  -3.3249098856018215e+00  -1.6377655351076870e+00  -2.4130601075710714e-01  -1.2261897485189435e-01  -3.8267735171114439e-02  -1.6350971005588336e-01  -2.1503127104388309e-01  -6.3406