<?xml version="1.0"?>
<VTKFile type="UnstructuredGrid"  version="0.1"  >
<UnstructuredGrid>
<Piece  NumberOfPoints="1089" NumberOfCells="2048">
<Points>
<DataArray  type="Float64"  NumberOfComponents="3"  format="ascii">0 0 0  0.03125 0 0  0.0625 0 0  0.09375 0 0  0.125 0 0  0.15625 0 0  0.1875 0 0  0.21875 0 0  0.25 0 0  0.28125 0 0  0.3125 0 0  0.34375 0 0  0.375 0 0  0.40625 0 0  0.4375 0 0  0.46875 0 0  0.5 0 0  0.53125 0 0  0.5625 0 0  0.59375 0 0  0.625 0 0  0.65625 0 0  0.6875 0 0  0.71875 0 0  0.75 0 0  0.78125 0 0  0.8125 0 0  0.84375 0 0  0.875 0 0  0.90625 0 0  0.9375 0 0  0.96875 0 0  1 0 0  0 0.03125 0  0.03125 0.03125 0  0.0625 0.03125 0  0.09375 0.03125 0  0.125 0.03125 0  0.15625 0.03125 0  0.1875 0.03125 0  0.21875 0.03125 0  0.25 0.03125 0  0.28125 0.03125 0  0.3125 0.03125 0  0.34375 0.03125 0  0.375 0.03125 0  0.40625 0.03125 0  0.4375 0.03125 0  0.46875 0.03125 0  0.5 0.03125 0  0.53125 0.03125 0  0.5625 0.03125 0  0.59375 0.03125 0  0.625 0.03125 0  0.65625 0.03125 0  0.6875 0.03125 0  0.71875 0.03125 0  0.75 0.03125 0  0.78125 0.03125 0  0.8125 0.03125 0  0.84375 0.03125 0  0.875 0.03125 0  0.90625 0.03125 0  0.9375 0.03125 0  0.96875 0.03125 0  1 0.03125 0  0 0.0625 0  0.03125 0.0625 0  0.0625 0.0625 0  0.09375 0.0625 0  0.125 0.0625 0  0.15625 0.0625 0  0.1875 0.0625 0  0.21875 0.0625 0  0.25 0.0625 0  0.28125 0.0625 0  0.3125 0.0625 0  0.34375 0.0625 0  0.375 0.0625 0  0.40625 0.0625 0  0.4375 0.0625 0  0.46875 0.0625 0  0.5 0.0625 0  0.53125 0.0625 0  0.5625 0.0625 0  0.59375 0.0625 0  0.625 0.0625 0  0.65625 0.0625 0  0.6875 0.0625 0  0.71875 0.0625 0  0.75 0.0625 0  0.78125 0.0625 0  0.8125 0.0625 0  0.84375 0.0625 0  0.875 0.0625 0  0.90625 0.0625 0  0.9375 0.0625 0  0.96875 0.0625 0  1 0.0625 0  0 0.09375 0  0.03125 0.09375 0  0.0625 0.09375 0  0.09375 0.09375 0  0.125 0.09375 0  0.15625 0.09375 0  0.1875 0.09375 0  0.21875 0.09375 0  0.25 0.09375 0  0.28125 0.09375 0  0.3125 0.09375 0  0.34375 0.09375 0  0.375 0.09375 0  0.40625 0.09375 0  0.4375 0.09375 0  0.46875 0.09375 0  0.5 0.09375 0  0.53125 0.09375 0  0.5625 0.09375 0  0.59375 0.09375 0  0.625 0.09375 0  0.65625 0.09375 0  0.6875 0.09375 0  0.71875 0.09375 0  0.75 0.09375 0  0.78125 0.09375 0  0.8125 0.09375 0  0.84375 0.09375 0  0.875 0.09375 0  0.90625 0.09375 0  0.9375 0.09375 0  0.96875 0.09375 0  1 0.09375 0  0 0.125 0  0.03125 0.125 0  0.0625 0.125 0  0.09375 0.125 0  0.125 0.125 0  0.15625 0.125 0  0.1875 0.125 0  0.21875 0.125 0  0.25 0.125 0  0.28125 0.125 0  0.3125 0.125 0  0.34375 0.125 0  0.375 0.125 0  0.40625 0.125 0  0.4375 0.125 0  0.46875 0.125 0  0.5 0.125 0  0.53125 0.125 0  0.5625 0.125 0  0.59375 0.125 0  0.625 0.125 0  0.65625 0.125 0  0.6875 0.125 0  0.71875 0.125 0  0.75 0.125 0  0.78125 0.125 0  0.8125 0.125 0  0.84375 0.125 0  0.875 0.125 0  0.90625 0.125 0  0.9375 0.125 0  0.96875 0.125 0  1 0.125 0  0 0.15625 0  0.03125 0.15625 0  0.0625 0.15625 0  0.09375 0.15625 0  0.125 0.15625 0  0.15625 0.15625 0  0.1875 0.15625 0  0.21875 0.15625 0  0.25 0.15625 0  0.28125 0.15625 0  0.3125 0.15625 0  0.34375 0.15625 0  0.375 0.15625 0  0.40625 0.15625 0  0.4375 0.15625 0  0.46875 0.15625 0  0.5 0.15625 0  0.53125 0.15625 0  0.5625 0.15625 0  0.59375 0.15625 0  0.625 0.15625 0  0.65625 0.15625 0  0.6875 0.15625 0  0.71875 0.15625 0  0.75 0.15625 0  0.78125 0.15625 0  0.8125 0.15625 0  0.84375 0.15625 0  0.875 0.15625 0  0.90625 0.15625 0  0.9375 0.15625 0  0.96875 0.15625 0  1 0.15625 0  0 0.1875 0  0.03125 0.1875 0  0.0625 0.1875 0  0.09375 0.1875 0  0.125 0.1875 0  0.15625 0.1875 0  0.1875 0.1875 0  0.21875 0.1875 0  0.25 0.1875 0  0.28125 0.1875 0  0.3125 0.1875 0  0.34375 0.1875 0  0.375 0.1875 0  0.40625 0.1875 0  0.4375 0.1875 0  0.46875 0.1875 0  0.5 0.1875 0  0.53125 0.1875 0  0.5625 0.1875 0  0.59375 0.1875 0  0.625 0.1875 0  0.65625 0.1875 0  0.6875 0.1875 0  0.71875 0.1875 0  0.75 0.1875 0  0.78125 0.1875 0  0.8125 0.1875 0  0.84375 0.1875 0  0.875 0.1875 0  0.90625 0.1875 0  0.9375 0.1875 0  0.96875 0.1875 0  1 0.1875 0  0 0.21875 0  0.03125 0.21875 0  0.0625 0.21875 0  0.09375 0.21875 0  0.125 0.21875 0  0.15625 0.21875 0  0.1875 0.21875 0  0.21875 0.21875 0  0.25 0.21875 0  0.28125 0.21875 0  0.3125 0.21875 0  0.34375 0.21875 0  0.375 0.21875 0  0.40625 0.21875 0  0.4375 0.21875 0  0.46875 0.21875 0  0.5 0.21875 0  0.53125 0.21875 0  0.5625 0.21875 0  0.59375 0.21875 0  0.625 0.21875 0  0.65625 0.21875 0  0.6875 0.21875 0  0.71875 0.21875 0  0.75 0.21875 0  0.78125 0.21875 0  0.8125 0.21875 0  0.84375 0.21875 0  0.875 0.21875 0  0.90625 0.21875 0  0.9375 0.21875 0  0.96875 0.21875 0  1 0.21875 0  0 0.25 0  0.03125 0.25 0  0.0625 0.25 0  0.09375 0.25 0  0.125 0.25 0  0.15625 0.25 0  0.1875 0.25 0  0.21875 0.25 0  0.25 0.25 0  0.28125 0.25 0  0.3125 0.25 0  0.34375 0.25 0  0.375 0.25 0  0.40625 0.25 0  0.4375 0.25 0  0.46875 0.25 0  0.5 0.25 0  0.53125 0.25 0  0.5625 0.25 0  0.59375 0.25 0  0.625 0.25 0  0.65625 0.25 0  0.6875 0.25 0  0.71875 0.25 0  0.75 0.25 0  0.78125 0.25 0  0.8125 0.25 0  0.84375 0.25 0  0.875 0.25 0  0.90625 0.25 0  0.9375 0.25 0  0.96875 0.25 0  1 0.25 0  0 0.28125 0  0.03125 0.28125 0  0.0625 0.28125 0  0.09375 0.28125 0  0.125 0.28125 0  0.15625 0.28125 0  0.1875 0.28125 0  0.21875 0.28125 0  0.25 0.28125 0  0.28125 0.28125 0  0.3125 0.28125 0  0.34375 0.28125 0  0.375 0.28125 0  0.40625 0.28125 0  0.4375 0.28125 0  0.46875 0.28125 0  0.5 0.28125 0  0.53125 0.28125 0  0.5625 0.28125 0  0.59375 0.28125 0  0.625 0.28125 0  0.65625 0.28125 0  0.6875 0.28125 0  0.71875 0.28125 0  0.75 0.28125 0  0.78125 0.28125 0  0.8125 0.28125 0  0.84375 0.28125 0  0.875 0.28125 0  0.90625 0.28125 0  0.9375 0.28125 0  0.96875 0.28125 0  1 0.28125 0  0 0.3125 0  0.03125 0.3125 0  0.0625 0.3125 0  0.09375 0.3125 0  0.125 0.3125 0  0.15625 0.3125 0  0.1875 0.3125 0  0.21875 0.3125 0  0.25 0.3125 0  0.28125 0.3125 0  0.3125 0.3125 0  0.34375 0.3125 0  0.375 0.3125 0  0.40625 0.3125 0  0.4375 0.3125 0  0.46875 0.3125 0  0.5 0.3125 0  0.53125 0.3125 0  0.5625 0.3125 0  0.59375 0.3125 0  0.625 0.3125 0  0.65625 0.3125 0  0.6875 0.3125 0  0.71875 0.3125 0  0.75 0.3125 0  0.78125 0.3125 0  0.8125 0.3125 0  0.84375 0.3125 0  0.875 0.3125 0  0.90625 0.3125 0  0.9375 0.3125 0  0.96875 0.3125 0  1 0.3125 0  0 0.34375 0  0.03125 0.34375 0  0.0625 0.34375 0  0.09375 0.34375 0  0.125 0.34375 0  0.15625 0.34375 0  0.1875 0.34375 0  0.21875 0.34375 0  0.25 0.34375 0  0.28125 0.34375 0  0.3125 0.34375 0  0.34375 0.34375 0  0.375 0.34375 0  0.40625 0.34375 0  0.4375 0.34375 0  0.46875 0.34375 0  0.5 0.34375 0  0.53125 0.34375 0  0.5625 0.34375 0  0.59375 0.34375 0  0.625 0.34375 0  0.65625 0.34375 0  0.6875 0.34375 0  0.71875 0.34375 0  0.75 0.34375 0  0.78125 0.34375 0  0.8125 0.34375 0  0.84375 0.34375 0  0.875 0.34375 0  0.90625 0.34375 0  0.9375 0.34375 0  0.96875 0.34375 0  1 0.34375 0  0 0.375 0  0.03125 0.375 0  0.0625 0.375 0  0.09375 0.375 0  0.125 0.375 0  0.15625 0.375 0  0.1875 0.375 0  0.21875 0.375 0  0.25 0.375 0  0.28125 0.375 0  0.3125 0.375 0  0.34375 0.375 0  0.375 0.375 0  0.40625 0.375 0  0.4375 0.375 0  0.46875 0.375 0  0.5 0.375 0  0.53125 0.375 0  0.5625 0.375 0  0.59375 0.375 0  0.625 0.375 0  0.65625 0.375 0  0.6875 0.375 0  0.71875 0.375 0  0.75 0.375 0  0.78125 0.375 0  0.8125 0.375 0  0.84375 0.375 0  0.875 0.375 0  0.90625 0.375 0  0.9375 0.375 0  0.96875 0.375 0  1 0.375 0  0 0.40625 0  0.03125 0.40625 0  0.0625 0.40625 0  0.09375 0.40625 0  0.125 0.40625 0  0.15625 0.40625 0  0.1875 0.40625 0  0.21875 0.40625 0  0.25 0.40625 0  0.28125 0.40625 0  0.3125 0.40625 0  0.34375 0.40625 0  0.375 0.40625 0  0.40625 0.40625 0  0.4375 0.40625 0  0.46875 0.40625 0  0.5 0.40625 0  0.53125 0.40625 0  0.5625 0.40625 0  0.59375 0.40625 0  0.625 0.40625 0  0.65625 0.40625 0  0.6875 0.40625 0  0.71875 0.40625 0  0.75 0.40625 0  0.78125 0.40625 0  0.8125 0.40625 0  0.84375 0.40625 0  0.875 0.40625 0  0.90625 0.40625 0  0.9375 0.40625 0  0.96875 0.40625 0  1 0.40625 0  0 0.4375 0  0.03125 0.4375 0  0.0625 0.4375 0  0.09375 0.4375 0  0.125 0.4375 0  0.15625 0.4375 0  0.1875 0.4375 0  0.21875 0.4375 0  0.25 0.4375 0  0.28125 0.4375 0  0.3125 0.4375 0  0.34375 0.4375 0  0.375 0.4375 0  0.40625 0.4375 0  0.4375 0.4375 0  0.46875 0.4375 0  0.5 0.4375 0  0.53125 0.4375 0  0.5625 0.4375 0  0.59375 0.4375 0  0.625 0.4375 0  0.65625 0.4375 0  0.6875 0.4375 0  0.71875 0.4375 0  0.75 0.4375 0  0.78125 0.4375 0  0.8125 0.4375 0  0.84375 0.4375 0  0.875 0.4375 0  0.90625 0.4375 0  0.9375 0.4375 0  0.96875 0.4375 0  1 0.4375 0  0 0.46875 0  0.03125 0.46875 0  0.0625 0.46875 0  0.09375 0.46875 0  0.125 0.46875 0  0.15625 0.46875 0  0.1875 0.46875 0  0.21875 0.46875 0  0.25 0.46875 0  0.28125 0.46875 0  0.3125 0.46875 0  0.34375 0.46875 0  0.375 0.46875 0  0.40625 0.46875 0  0.4375 0.46875 0  0.46875 0.46875 0  0.5 0.46875 0  0.53125 0.46875 0  0.5625 0.46875 0  0.59375 0.46875 0  0.625 0.46875 0  0.65625 0.46875 0  0.6875 0.46875 0  0.71875 0.46875 0  0.75 0.46875 0  0.78125 0.46875 0  0.8125 0.46875 0  0.84375 0.46875 0  0.875 0.46875 0  0.90625 0.46875 0  0.9375 0.46875 0  0.96875 0.46875 0  1 0.46875 0  0 0.5 0  0.03125 0.5 0  0.0625 0.5 0  0.09375 0.5 0  0.125 0.5 0  0.15625 0.5 0  0.1875 0.5 0  0.21875 0.5 0  0.25 0.5 0  0.28125 0.5 0  0.3125 0.5 0  0.34375 0.5 0  0.375 0.5 0  0.40625 0.5 0  0.4375 0.5 0  0.46875 0.5 0  0.5 0.5 0  0.53125 0.5 0  0.5625 0.5 0  0.59375 0.5 0  0.625 0.5 0  0.65625 0.5 0  0.6875 0.5 0  0.71875 0.5 0  0.75 0.5 0  0.78125 0.5 0  0.8125 0.5 0  0.84375 0.5 0  0.875 0.5 0  0.90625 0.5 0  0.9375 0.5 0  0.96875 0.5 0  1 0.5 0  0 0.53125 0  0.03125 0.53125 0  0.0625 0.53125 0  0.09375 0.53125 0  0.125 0.53125 0  0.15625 0.53125 0  0.1875 0.53125 0  0.21875 0.53125 0  0.25 0.53125 0  0.28125 0.53125 0  0.3125 0.53125 0  0.34375 0.53125 0  0.375 0.53125 0  0.40625 0.53125 0  0.4375 0.53125 0  0.46875 0.53125 0  0.5 0.53125 0  0.53125 0.53125 0  0.5625 0.53125 0  0.59375 0.53125 0  0.625 0.53125 0  0.65625 0.53125 0  0.6875 0.53125 0  0.71875 0.53125 0  0.75 0.53125 0  0.78125 0.531
[...]
<PointData  Scalars="phi"> 
<DataArray  type="Float64"  Name="phi"  format="ascii">0.0000000000000000e+00  0.0000000000000000e+00  0.0000000000000000e+00  0.0000000000000000e+00  0.0000000000000000e+00  0.0000000000000000e+00  0.0000000000000000e+00  0.0000000000000000e+00  0.0000000000000000e+00  0.0000000000000000e+00  0.0000000000000000e+00  0.0000000000000000e+00  0.0000000000000000e+00  0.0000000000000000e+00  0.0000000000000000e+00  0.0000000000000000e+00  0.0000000000000000e+00  0.0000000000000000e+00  0.0000000000000000e+00  0.0000000000000000e+00  0.0000000000000000e+00  0.0000000000000000e+00  0.0000000000000000e+00  0.0000000000000000e+00  0.0000000000000000e+00  0.0000000000000000e+00  0.0000000000000000e+00  0.0000000000000000e+00  0.0000000000000000e+00  0.0000000000000000e+00  0.0000000000000000e+00  0.0000000000000000e+00  0.0000000000000000e+00  0.0000000000000000e+00  -4.6671110157508394e-18  3.7875818883600249e-07  1.4924216704524642e-06  3.6600229442072926e-06  7.1483473689881712e-06  1.2158666150923280e-05  1.8816007488642672e-05  2.7161461524717057e-05  3.7147867787453192e-05  4.8639090154573524e-05  6.1412939085717582e-05  7.5167655807339945e-05  8.9531732408110838e-05  1.0407671020797493e-04  1.1833248108457045e-04  1.3180451708056561e-04  1.4399237635085409e-04  1.5440878131066848e-04  1.6259853975469837e-04  1.6815658276444278e-04  1.7074442440127136e-04  1.7010440648592632e-04  1.6607117528320885e-04  1.5857994306165427e-04  1.4767121347934820e-04  1.3349179351952490e-04  1.1629207740542856e-04  9.6419780582855229e-05  7.4310565966699625e-05  5.0476481450577304e-05  2.5494309655081379e-05  0.0000000000000000e+00  0.0000000000000000e+00  -3.7875818885443467e-07  -1.8208532446099874e-17  1.8477180911501283e-06  5.8026337586479912e-06  1.2399246167178267e-05  2.2041728276545354e-05  3.4982466198770443e-05  5.1306664241893558e-05  7.0923694066319444e-05  9.3565590935837782e-05  1.1879281461251692e-04  1.4600710515012160e-04  1.7447098430014963e-04  2.0333319149554047e-04  2.3165910913545176e-04  2.5846503400709216e-04  2.8275499770185291e-04  3.0355873474562632e-04  3.1996934693536425e-04  3.3117921810394172e-04  3.3651279519055443e-04  3.3545496700344119e-04  3.2767393748297830e-04  3.1303770011978881e-04  2.9162346800208909e-04  2.6371969336212329e-04  2.2982061699995985e-04  1.9061362252995479e-04  1.4696004495762230e-04  9.9870522982458017e-05  5.0476481450577426e-05  0.0000000000000000e+00  0.0000000000000000e+00  -1.4924216704795722e-06  -1.8477180912037002e-06  -3.9408370022569674e-17  5.0084145823057687e-06  1.3981126421754161e-05  2.7527822938200910e-05  4.6032155007564139e-05  6.9628677370660557e-05  9.8189844419792192e-05  1.3132365399624185e-04  1.6838211187447709e-04  2.0848026425804934e-04  2.5052513059294328e-04  2.9325347986383231e-04  3.3527704500864734e-04  3.7513347546057747e-04  4.1134109840917650e-04  4.4245540402308134e-04  4.6712509465961368e-04  4.8414554603784000e-04  4.9250761937801306e-04  4.9143993442189032e-04  4.8044295793690946e-04  4.5931357207515627e-04  4.2815915100062726e-04  3.8740058020326400e-04  3.3776408758616429e-04  2.8026220406916058e-04  2.1616461372077353e-04  1.4696004495762287e-04  7.4310565966700086e-05  0.0000000000000000e+00  0.0000000000000000e+00  -3.6600229442424737e-06  -5.8026337587175284e-06  -5.0084145824080750e-06  -6.6389627602005728e-17  1.0297015506471305e-05  2.6701231567156723e-05  4.9732821514159099e-05  7.9582898468541534e-05  1.1609616254546219e-04  1.5876760483820901e-04  2.0675349415240905e-04  2.5889631375469117e-04  3.1376276923751986e-04  3.6969347593750754e-04  4.2486247484401407e-04  4.7734433725588906e-04  5.2518631556327882e-04  5.6648279216626215e-04  5.9944917869989424e-04  6.2249242740618519e-04  6.3427543550252543e-04  6.3377284741771304e-04  6.2031608049954614e-04  5.9362580527755500e-04  5.5383058636224094e-04  5.0147091643498688e-04  4.3748843244302408e-04  3.6320066483600465e-04  2.8026220406916216e-04  1.9061362252995658e-04  9.6419780582856341e-05  0.0000000000000000e+00  0.0000000000000000e+00  -7.1483473690306584e-06  -1.2399246167262255e-05  -1.3981126421877717e-05  -1.0297015506631633e-05  -9.6762495224720354e-17  1.7941282204482845e-05  4.4189787985471429e-05  7.9002012583770750e-05  1.2220631956667556e-04  1.7319861031646344e-04  2.3095561150651833e-04  2.9406537222879280e-04  3.6077389035773090e-04  4.2904615641373557e-04  4.9663933700423550e-04  5.6118534072455964e-04  6.2027963570645097e-04  6.7157293428148892e-04  7.1286223636005293e-04  7.4217773402224501e-04  7.5786222522013832e-04  7.5863995898163496e-04  7.4367222768368692e-04  7.1259751877919141e-04  6.6555461955440307e-04  6.0318771099711734e-04  5.2663316400701965e-04  4.3748843244302733e-04  3.3776408758616868e-04  2.2982061699996370e-04  1.1629207740543076e-04  0.0000000000000000e+00  0.0000000000000000e+00  -1.2158666150972174e-05  -2.2041728276641997e-05  -2.7527822938343070e-05  -2.6701231567341129e-05  -1.7941282204705337e-05  -1.2782485549847750e-16  2.7935162919390716e-05  6.6196063487056162e-05  1.1460794261899562e-04  1.7248396382224616e-04  2.3864054616794475e-04  3.1143301356161045e-04  3.8881029043792855e-04  4.6838662987952018e-04  5.4752769250799660e-04  6.2344772913504841e-04  6.9331417895653101e-04  7.5435569511433855e-04  8.0396946240470402e-04  8.3982368356809401e-04  8.5995128064015507e-04  8.6283117984802568e-04  8.4745401017124783e-04  8.1336962911944652e-04  7.6071457172938281e-04  6.9021827317169559e-04  6.0318771099712298e-04  5.0147091643499512e-04  3.8740058020327245e-04  2.6371969336213012e-04  1.3349179351952864e-04  0.0000000000000000e+00  0.0000000000000000e+00  -1.8816007488696950e-05  -3.4982466198877711e-05  -4.6032155007721898e-05  -4.9732821514363674e-05  -4.4189787985718112e-05  -2.7935162919673963e-05  -1.5677577573284678e-16  4.0033508508137576e-05  9.2001947815695777e-05  1.5515399540582818e-04  2.2816751715786643e-04  3.0918990393596625e-04  3.9590020349542746e-04  4.8559075247576962e-04  5.7526525026625991e-04  6.6174957014816110e-04  7.4181109833764704e-04  8.1228204792022757e-04  8.7018202552840767e-04  9.1283514060181412e-04  9.3797713983777048e-04  9.4384841566163354e-04  9.2926926315746493e-04  8.9369442459276980e-04  8.3724473859752234e-04  7.6071457172939159e-04  6.6555461955441673e-04  5.5383058636225644e-04  4.2815915100064157e-04  2.9162346800209982e-04  1.4767121347935398e-04  0.0000000000000000e+00  0.0000000000000000e+00  -2.7161461524775611e-05  -5.1306664242009269e-05  -6.9628677370830669e-05  -7.9582898468762020e-05  -7.9002012584036461e-05  -6.6196063487360986e-05  -4.0033508508474655e-05  -1.8096146177690166e-16  5.3767504773891443e-05  1.2047275016711671e-04  1.9867873882504393e-04  2.8635224253684870e-04  3.8093266284701757e-04  4.7942268882242625e-04  5.7849734808235404e-04  6.7462732570528622e-04  7.6421186181295595e-04  8.4371615431407345e-04  9.0980800337591968e-04  9.5948844610812384e-04  9.9021134334213680e-04  9.9998728715100862e-04  9.8746778227469306e-04  9.5200639438744060e-04  8.9369442459278237e-04  8.1336962911946723e-04  7.1259751877921591e-04  5.9362580527757961e-04  4.5931357207517774e-04  3.1303770011980464e-04  1.5857994306166262e-04  0.0000000000000000e+00  0.0000000000000000e+00  -3.7147867787514863e-05  -7.0923694066441295e-05  -9.8189844419971275e-05  -1.1609616254569417e-04  -1.2220631956695490e-04  -1.1460794261931577e-04  -9.2001947816049362e-05  -5.3767504774270480e-05  -1.9811120442677645e-16  6.8479590412645971e-05  1.5014440222901979e-04  2.4280981573276419e-04  3.4370827345321273e-04  4.4958799932498289e-04  5.5683190394285810e-04  6.6159217060494458e-04  7.5993539911035500e-04  8.4799276266989631e-04  9.2210942413416502e-04  9.7898746920577835e-04  1.0158168460541362e-03  1.0303892439817537e-03  1.0211904815382207e-03  9.8746778227470954e-04  9.2926926315749355e-04  8.4745401017128361e-04  7.4367222768372486e-04  6.2031608049958203e-04  4.8044295793693987e-04  3.2767393748300025e-04  1.6607117528322029e-04  0.0000000000000000e+00  0.0000000000000000e+00  -4.8639090154637160e-05  -9.3565590935963468e-05  -1.3132365399642649e-04  -1.5876760483844808e-04  -1.7319861031675103e-04  -1.7248396382257532e-04  -1.5515399540619117e-04  -1.2047275016750505e-04  -6.8479590413051029e-05  -2.0648290471260249e-16  8.3374940124317823e-05  1.7933972372796331e-04  2.8495436933472277e-04  3.9675016233887679e-04  5.1085719958489893e-04  6.2314889568331768e-04  7.2939794435064619e-04  8.2543777293780170e-04  9.0732330165643478e-04  9.7148482965598952e-04  1.0148691177543959e-03  1.0350622128791754e-03  1.0303892439817751e-03  9.9998728715104635e-04  9.4384841566168168e-04  8.6283117984807913e-04  7.5863995898168874e-04  6.3377284741776216e-04  4.9143993442193087e-04  3.3545496700347014e-04  1.7010440648594131e-04  0.0000000000000000e+00  0.0000000000000000e+00  -6.1412939085782038e-05  -1.1879281461264417e-04  -1.6838211187466390e-04  -2.0675349415265071e-04  -2.3095561150680879e-04  -2.3864054616827671e-04  -2.2816751715823170e-04  -1.9867873882543389e-04  -1.5014440222942550e-04  -8.3374940124730131e-05  -2.0503812997935489e-16  9.7585163359701520e-05  2.0630390349826941e-04  3.2250984767956826e-04  4.4212178788291567e-04  5.6077666888873794e-04  6.7399483686220922e-04  7.7735122732439826e-04  8.6664592917380190e-04  9.3806757090202238e-04  9.8834323608807274e-04  1.0148691177544219e-03  1.0158168460541830e-03  9.9021134334219859e-04  9.3797713983784106e-04  8.5995128064022890e-04  7.5786222522020966e-04  6.3427543550258919e-04  4.9250761937806511e-04  3.3651279519059107e-04  1.7074442440129022e-04  0.0000000000000000e+00  0.0000000000000000e+00  -7.5167655807404103e-05  -1.4600710515024826e-04  -2.0848026425823512e-04  -2.5889631375493121e-04  -2.9406537222908093e-04  -3.1143301356193918e-04  -3.0918990393632724e-04  -2.8635224253723311e-04  -2.4280981573316279e-04  -1.7933972372836683e-04  -9.7585163360100968e-05  -1.9347730399200589e-16  1.1023881645156719e-04  2.2934769255393656e-04  3.5307727235215616e-04  4.7687239244321718e-04  5.9604500148403177e-04  7.0595342507768913e-04  8.0218110128108249e-04  8.8070791998266784e-04  9.3806757090205274e-04  9.7148482965604514e-04  9.7898746920585360e-04  9.5948844610821242e-04  9.1283514060190997e-04  8.3982368356819018e-04  7.4217773402233576e-04  6.2249242740626499e-04  4.8414554603790430e-04  3.3117921810398672e-04  1.6815658276446595e-04  0.0000000000000000e+00  0.0000000000000000e+00  -8.9531732408173681e-05  -1.7447098430027364e-04  -2.5052513059312505e-04  -3.1376276923775431e-04  -3.6077389035801192e-04  -3.8881029043824850e-04  -3.9590020349577804e-04  -3.8093266284738961e-04  -3.4370827345359714e-04  -2.8495436933511004e-04  -2.0630390349865070e-04  -1.1023881645193394e-04  -1.7229968668800589e-16  1.2053273706331153e-04  2.4698613510213237e-04  3.7465883052666550e-04  4.9870026022154259e-04  6.1429627059921834e-04  7.1685431148279166e-04  8.0218110128111664e-04  8.6664592917386576e-04  9.0732330165652292e-04  9.2210942413427127e-04  9.0980800337603720e-04  8.7018202552853008e-04  8.0396946240482436e-04  7.1286223636016417e-04  5.9944917869999095e-04  4.6712509465969099e-04  3.1996934693541814e-04  1.6259853975472596e-04  0.0000000000000000e+00  0.0000000000000000e+00  -1.0407671020803553e-04  -2.0333319149565997e-04  -2.9325347986400719e-04  -3.6969347593773306e-04  -4.2904615641400532e-04  -4.6838662987982657e-04  -4.8559075247610442e-04  -4.7942268882278030e-04  -4.4958799932534691e-04  -3.9675016233924152e-04  -3.2250984767992475e-04  -2.2934769255427657e-04  -1.2053273706362743e-04  -1.4276686407117269e-16  1.2779813409615081e-04  2.5806103444034150e-04  3.8582297454877753e-04  5.0614329333416037e-04  6.1429627059925596e-04  7.0595342507776037e-04  7.7735122732449833e-04  8.2543777293792443e-04  8.4799276267003519e-04  8.4371615431422177e-04  8.1228204792037784e-04  7.5435569511448340e-04  6.7157293428162152e-04  5.6648279216637632e-04  4.4245540402317192e-04  3.0355873474568909e-04  1.5440878131070063e-04  0.0000000000000000e+00  0.0000000000000000e+00  -1.1833248108462796e-04  -2.3165910913556511e-04  -3.3527704500881312e-04  -4.2486247484422733e-04  -4.9663933700449029e-04  -5.4752769250828522e-04  -5.7526525026657400e-04  -5.7849734808268494e-04  -5.5683190394319659e-04  -5.1085719958523569e-04  -4.4212178788324201e-04  -3.5307727235246408e-04  -2.4698613510241443e-04  -1.2779813409640104e-04  -1.0685325476622874e-16  1.3155580916634769e-04  2.6183673036264465e-04  3.8582297454881726e-04  4.9870026022161957e-04  5.9604500148414128e-04  6.7399483686234637e-04  7.2939794435080449e-04  7.5993539911052739e-04  7.6421186181313485e-04  7.4181109833782507e-04  6.9331417895670037e-04  6.2027963570660460e-04  5.2518631556341022e-04  4.1134109840928020e-04  2.8275499770192452e-04  1.4399237635089062e-04  0.0000000000000000e+00  0.0000000000000000e+00  -1.3180451708061938e-04  -2.5846503400719814e-04  -3.7513347546073224e-04  -4.7734433725608790e-04  -5.6118534072479632e-04  -6.2344772913531577e-04  -6.6174957014845113e-04  -6.7462732570558990e-04  -6.6159217060525314e-04  -6.2314889568362223e-04  -5.6077666888902991e-04  -4.7687239244348866e-04  -3.7465883052690988e-04  -2.5806103444055281e-04  -1.3155580916652171e-04  -6.6897896824592623e-17  1.3155580916638859e-04  2.5806103444042162e-04  3.7465883052678199e-04  4.7687239244336506e-04  5.6077666888891173e-04  6.2314889568351088e-04  6.6159217060514960e-04  6.7462732570549514e-04  6.6174957014836591e-04  6.2344772913524140e-04  5.6118534072473322e-04  4.7734433725603673e-04  3.7513347546069354e-04  2.5846503400717212e-04  1.3180451708060635e-04  0.0000000000000000e+00  0.0000000000000000e+00  -1.4399237635090363e-04  -2.8275499770195043e-04  -4.1134109840931885e-04  -5.2518631556346118e-04  -6.2027963570666759e-04  -6.9331417895677485e-04  -7.4181109833791018e-04  -7.6421186181322960e-04  -7.5993539911063082e-04  -7.2939794435091573e-04  -6.7399483686246401e-04  -5.9604500148426444e-04  -4.9870026022174685e-04  -3.8582297454894785e-04  -2.6183673036277725e-04  -1.3155580916648094e-04  -2.5651842162096623e-17  1.2779813409627053e-04  2.4698613510228703e-04  3.5307727235234096e-04  4.4212178788312454e-04  5.1085719958512521e-04  5.5683190394309381e-04  5.7849734808259083e-04  5.7526525026648954e-04  5.4752769250821149e-04  4.9663933700442773e-04  4.2486247484417659e-04  3.3527704500877463e-04  2.3165910913553931e-04  1.1833248108461502e-04  0.0000000000000000e+00  0.0000000000000000e+00  -1.5440878131071348e-04  -3.0355873474571479e-04  -4.4245540402321009e-04  -5.6648279216642684e-04  -6.7157293428168397e-04  -7.5435569511455702e-04  -8.1228204792046198e-04  -8.4371615431431545e-04  -8.4799276267013765e-04  -8.2543777293803437e-04  -7.7735122732461466e-04  -7.0595342507788201e-04  -6.1429627059938173e-04  -5.0614329333428928e-04  -3.8582297454890834e-04  -2.5806103444047296e-04  -1.2779813409628145e-04  1.4164848431792121e-17  1.2053273706350199e-04  2.2934769255415543e-04  3.2250984767980922e-04  3.9675016233913277e-04  4.4958799932524597e-04  4.7942268882268787e-04  4.8559075247602153e-04  4.6838662987975409e-04  4.2904615641394390e-04  3.6969347593768313e-04  2.9325347986396946e-04  2.0333319149563460e-04  1.0407671020802280e-04  0.0000000000000000e+00  0.0000000000000000e+00  -1.6259853975473853e-04  -3.1996934693544324e-04  -4.6712509465972839e-04  -5.9944917870004028e-04  -7.1286223636022542e-04  -8.0396946240489625e-04  -8.7018202552861237e-04  -9.0980800337612925e-04  -9.2210942413437178e-04  -9.0732330165663069e-04  -8.6664592917397960e-04  -8.0218110128123590e-04  -7.1685431148291526e-04  -6.1429627059934465e-04  -4.9870026022167063e-04  -3.7465883052679387e-04  -2.4698613510225982e-04  -1.2053273706343694e-04  5.0025216367767166e-17  1.1023881645181597e-04  2.0630390349853821e-04  2.8495436933500423e-04  3.4370827345349885e-04  3.8093266284729979e-04  3.9590020349569743e-04  3.8881029043817802e-04  3.6077389035795218e-04  3.1376276923770585e-04  2.5052513059308824e-04  1.7447098430024892e-04  8.9531732408161294e-05  0.0000000000000000e+00  0.0000000000000000e+00  -1.6815658276447815e-04  -3.3117921810401111e-04  -4.8414554603794046e-04  -6.2249242740631291e-04  -7.4217773402239474e-04  -8.3982368356825968e-04  -9.1283514060198933e-04  -9.5948844610830100e-04  -9.7898746920595052e-04  -9.7148482965614923e-04  -9.3806757090216279e-04  -8.8070791998278320e-04  -8.0218110128120186e-04  -7.0595342507781122e-04  -5.9604500148415537e-04  -4.7687239244334099e-04  -3.5307727235227916e-04  -2.2934769255405756e-04  -1.1023881645168512e-04  7.9731555162089907e-17  9.7585163359992547e-05  1.7933972372826480e-04  2.4280981573306806e-04  2.8635224253714653e-04  3.0918990393624961e-04  3.1143301356187126e-04  2.9406537222902325e-04  2.5889631375488448e-04  2.0848026425819967e-04  1.4600710515022449e-04  7.5167655807392177e-05  0.0000000000000000e+00  0.0000000000000000e+00  -1.7074442440130193e-04  -3.3651279519061438e-04  -4.9250761937809969e-04  -6.3427543550263494e-04  -7.5786222522026604e-04  -8.5995128064029515e-04  -9.3797713983791696e-04  -9.9021134334228295e-04  -1.0158168460542754e-03  -1.0148691177545208e-03  -9.8834323608817790e-04  -9.3806757090213254e-04  -8.6664592917391617e-04  -7.7735122732451502e-04  -6.7399483686232729e-04  -5.6077666888885622e-04  -4.4212178788303298e-04  -3.2250984767968367e-04  -2.0630390349838192e-04  -9.7585163359809995e-05  1.0163092426111788e-16  8.3374940124632865e-05  1.5014440222933524e-04  1.9867873882535152e-04  2.2816751715815781e-04  2.3864054616821193e-04  2.3095561150675379e-04  2.0675349415260610e-04  1.6838211187463013e-04  1.1879281461262152e-04  6.1412939085770681e-05  0.0000000000000000e+00  0.0000000000000000e+00  -1.7010440648595229e-04  -3.3545496700349204e-04  -4.9143993442196362e-04  -6.3377284741780531e-04  -7.5863995898174186e-04  -8.6283117984814191e-04  -9.4384841566175323e-04  -9.9998728715112572e-04  -1.0303892439818625e-03  -1.0350622128792693e-03  -1.0148691177544954e-03  -9.7148482965609393e-04  -9.0732330165654265e-04  -8.2543777293791175e-04  -7.2939794435075765e-04  -6.2314889568342914e-04  -5.1085719958500963e-04  -3.9675016233898559e-04  -2.8495436933482875e-04  -1.7933972372806553e-04  -8.3374940124415211e-05  1.1487092030196039e-16  6.8479590412966001e-05  1.2047275016742747e-04  1.5515399540612157e-04  1.7248396382251436e-04  1.7319861031669931e-04  1.5876760483840612e-04  1.3132365399639472e-04  9.3565590935942150e-05  4.8639090154626480e-05  0.0000000000000000e+00  0.0000000000000000e+00  -1.6607117528323053e-04  -3.2767393748302063e-04  -4.8044295793697034e-04  -6.2031608049962226e-04  -7.4367222768377452e-04  -8.4745401017134216e-04  -9.2926926315756023e-04  -9.8746778227478348e-04  -1.0211904815383018e-03  -1.0303892439818413e-03  -1.0158168460542292e-03  -9.7898746920587571e-04  -9.2210942413426542e-04  -8.4799276266999855e-04  -7.5993539911045865e-04  -6.6159217060504844e-04  -5.5683190394296132e-04  -4.4958799932508415e-04  -3.4370827345331134e-04  -2.4280981573285916e-04  -1.5014440222911027e-04  -6.8479590412731081e-05  1.1912702134632457e-16  5.3767504774198353e-05  9.2001947815984690e-05  1.1460794261925917e-04  1.2220631956690693e-04  1.1609616254565523e-04  9.8189844419941730e-05  7.0923694066421508e-05  3.7147867787504956e-05  0.0000000000000000e+00  0.0000000000000000e+00  -1.5857994306167199e-04  -3.1303770011982345e-04  -4.5931357207520561e-04  -5.9362580527761637e-04  -7.1259751877926123e-04  -8.1336962911952057e-04  -8.9369442459284331e-04  -9.5200639438750858e-04  -9.8746778227476722e-04  -9.9998728715108886e-04  -9.9021134334222201e-04  -9.5948844610821286e-04  -9.0980800337601194e-04  -8.4371615431416724e-04  -7.6421186181305071e-04  -6.7462732570538098e-04  -5.7849734808244804e-04  -4.7942268882251874e-04  -3.8093266284710756e-04  -2.8635224253693544e-04  -1.9867873882512658e-04  -1.2047275016719444e-04  -5.3767504773963624e-05  1.1501757857946938e-16  4.00335085084155