<?xml version="1.0"?>
<VTKFile type="UnstructuredGrid"  version="0.1"  >
<UnstructuredGrid>
<Piece  NumberOfPoints="1089" NumberOfCells="2048">
<Points>
<DataArray  type="Float64"  NumberOfComponents="3"  format="ascii">0 0 0  0.03125 0 0  0.0625 0 0  0.09375 0 0  0.125 0 0  0.15625 0 0  0.1875 0 0  0.21875 0 0  0.25 0 0  0.28125 0 0  0.3125 0 0  0.34375 0 0  0.375 0 0  0.40625 0 0  0.4375 0 0  0.46875 0 0  0.5 0 0  0.53125 0 0  0.5625 0 0  0.59375 0 0  0.625 0 0  0.65625 0 0  0.6875 0 0  0.71875 0 0  0.75 0 0  0.78125 0 0  0.8125 0 0  0.84375 0 0  0.875 0 0  0.90625 0 0  0.9375 0 0  0.96875 0 0  1 0 0  0 0.03125 0  0.03125 0.03125 0  0.0625 0.03125 0  0.09375 0.03125 0  0.125 0.03125 0  0.15625 0.03125 0  0.1875 0.03125 0  0.21875 0.03125 0  0.25 0.03125 0  0.28125 0.03125 0  0.3125 0.03125 0  0.34375 0.03125 0  0.375 0.03125 0  0.40625 0.03125 0  0.4375 0.03125 0  0.46875 0.03125 0  0.5 0.03125 0  0.53125 0.03125 0  0.5625 0.03125 0  0.59375 0.03125 0  0.625 0.03125 0  0.65625 0.03125 0  0.6875 0.03125 0  0.71875 0.03125 0  0.75 0.03125 0  0.78125 0.03125 0  0.8125 0.03125 0  0.84375 0.03125 0  0.875 0.03125 0  0.90625 0.03125 0  0.9375 0.03125 0  0.96875 0.03125 0  1 0.03125 0  0 0.0625 0  0.03125 0.0625 0  0.0625 0.0625 0  0.09375 0.0625 0  0.125 0.0625 0  0.15625 0.0625 0  0.1875 0.0625 0  0.21875 0.0625 0  0.25 0.0625 0  0.28125 0.0625 0  0.3125 0.0625 0  0.34375 0.0625 0  0.375 0.0625 0  0.40625 0.0625 0  0.4375 0.0625 0  0.46875 0.0625 0  0.5 0.0625 0  0.53125 0.0625 0  0.5625 0.0625 0  0.59375 0.0625 0  0.625 0.0625 0  0.65625 0.0625 0  0.6875 0.0625 0  0.71875 0.0625 0  0.75 0.0625 0  0.78125 0.0625 0  0.8125 0.0625 0  0.84375 0.0625 0  0.875 0.0625 0  0.90625 0.0625 0  0.9375 0.0625 0  0.96875 0.0625 0  1 0.0625 0  0 0.09375 0  0.03125 0.09375 0  0.0625 0.09375 0  0.09375 0.09375 0  0.125 0.09375 0  0.15625 0.09375 0  0.1875 0.09375 0  0.21875 0.09375 0  0.25 0.09375 0  0.28125 0.09375 0  0.3125 0.09375 0  0.34375 0.09375 0  0.375 0.09375 0  0.40625 0.09375 0  0.4375 0.09375 0  0.46875 0.09375 0  0.5 0.09375 0  0.53125 0.09375 0  0.5625 0.09375 0  0.59375 0.09375 0  0.625 0.09375 0  0.65625 0.09375 0  0.6875 0.09375 0  0.71875 0.09375 0  0.75 0.09375 0  0.78125 0.09375 0  0.8125 0.09375 0  0.84375 0.09375 0  0.875 0.09375 0  0.90625 0.09375 0  0.9375 0.09375 0  0.96875 0.09375 0  1 0.09375 0  0 0.125 0  0.03125 0.125 0  0.0625 0.125 0  0.09375 0.125 0  0.125 0.125 0  0.15625 0.125 0  0.1875 0.125 0  0.21875 0.125 0  0.25 0.125 0  0.28125 0.125 0  0.3125 0.125 0  0.34375 0.125 0  0.375 0.125 0  0.40625 0.125 0  0.4375 0.125 0  0.46875 0.125 0  0.5 0.125 0  0.53125 0.125 0  0.5625 0.125 0  0.59375 0.125 0  0.625 0.125 0  0.65625 0.125 0  0.6875 0.125 0  0.71875 0.125 0  0.75 0.125 0  0.78125 0.125 0  0.8125 0.125 0  0.84375 0.125 0  0.875 0.125 0  0.90625 0.125 0  0.9375 0.125 0  0.96875 0.125 0  1 0.125 0  0 0.15625 0  0.03125 0.15625 0  0.0625 0.15625 0  0.09375 0.15625 0  0.125 0.15625 0  0.15625 0.15625 0  0.1875 0.15625 0  0.21875 0.15625 0  0.25 0.15625 0  0.28125 0.15625 0  0.3125 0.15625 0  0.34375 0.15625 0  0.375 0.15625 0  0.40625 0.15625 0  0.4375 0.15625 0  0.46875 0.15625 0  0.5 0.15625 0  0.53125 0.15625 0  0.5625 0.15625 0  0.59375 0.15625 0  0.625 0.15625 0  0.65625 0.15625 0  0.6875 0.15625 0  0.71875 0.15625 0  0.75 0.15625 0  0.78125 0.15625 0  0.8125 0.15625 0  0.84375 0.15625 0  0.875 0.15625 0  0.90625 0.15625 0  0.9375 0.15625 0  0.96875 0.15625 0  1 0.15625 0  0 0.1875 0  0.03125 0.1875 0  0.0625 0.1875 0  0.09375 0.1875 0  0.125 0.1875 0  0.15625 0.1875 0  0.1875 0.1875 0  0.21875 0.1875 0  0.25 0.1875 0  0.28125 0.1875 0  0.3125 0.1875 0  0.34375 0.1875 0  0.375 0.1875 0  0.40625 0.1875 0  0.4375 0.1875 0  0.46875 0.1875 0  0.5 0.1875 0  0.53125 0.1875 0  0.5625 0.1875 0  0.59375 0.1875 0  0.625 0.1875 0  0.65625 0.1875 0  0.6875 0.1875 0  0.71875 0.1875 0  0.75 0.1875 0  0.78125 0.1875 0  0.8125 0.1875 0  0.84375 0.1875 0  0.875 0.1875 0  0.90625 0.1875 0  0.9375 0.1875 0  0.96875 0.1875 0  1 0.1875 0  0 0.21875 0  0.03125 0.21875 0  0.0625 0.21875 0  0.09375 0.21875 0  0.125 0.21875 0  0.15625 0.21875 0  0.1875 0.21875 0  0.21875 0.21875 0  0.25 0.21875 0  0.28125 0.21875 0  0.3125 0.21875 0  0.34375 0.21875 0  0.375 0.21875 0  0.40625 0.21875 0  0.4375 0.21875 0  0.46875 0.21875 0  0.5 0.21875 0  0.53125 0.21875 0  0.5625 0.21875 0  0.59375 0.21875 0  0.625 0.21875 0  0.65625 0.21875 0  0.6875 0.21875 0  0.71875 0.21875 0  0.75 0.21875 0  0.78125 0.21875 0  0.8125 0.21875 0  0.84375 0.21875 0  0.875 0.21875 0  0.90625 0.21875 0  0.9375 0.21875 0  0.96875 0.21875 0  1 0.21875 0  0 0.25 0  0.03125 0.25 0  0.0625 0.25 0  0.09375 0.25 0  0.125 0.25 0  0.15625 0.25 0  0.1875 0.25 0  0.21875 0.25 0  0.25 0.25 0  0.28125 0.25 0  0.3125 0.25 0  0.34375 0.25 0  0.375 0.25 0  0.40625 0.25 0  0.4375 0.25 0  0.46875 0.25 0  0.5 0.25 0  0.53125 0.25 0  0.5625 0.25 0  0.59375 0.25 0  0.625 0.25 0  0.65625 0.25 0  0.6875 0.25 0  0.71875 0.25 0  0.75 0.25 0  0.78125 0.25 0  0.8125 0.25 0  0.84375 0.25 0  0.875 0.25 0  0.90625 0.25 0  0.9375 0.25 0  0.96875 0.25 0  1 0.25 0  0 0.28125 0  0.03125 0.28125 0  0.0625 0.28125 0  0.09375 0.28125 0  0.125 0.28125 0  0.15625 0.28125 0  0.1875 0.28125 0  0.21875 0.28125 0  0.25 0.28125 0  0.28125 0.28125 0  0.3125 0.28125 0  0.34375 0.28125 0  0.375 0.28125 0  0.40625 0.28125 0  0.4375 0.28125 0  0.46875 0.28125 0  0.5 0.28125 0  0.53125 0.28125 0  0.5625 0.28125 0  0.59375 0.28125 0  0.625 0.28125 0  0.65625 0.28125 0  0.6875 0.28125 0  0.71875 0.28125 0  0.75 0.28125 0  0.78125 0.28125 0  0.8125 0.28125 0  0.84375 0.28125 0  0.875 0.28125 0  0.90625 0.28125 0  0.9375 0.28125 0  0.96875 0.28125 0  1 0.28125 0  0 0.3125 0  0.03125 0.3125 0  0.0625 0.3125 0  0.09375 0.3125 0  0.125 0.3125 0  0.15625 0.3125 0  0.1875 0.3125 0  0.21875 0.3125 0  0.25 0.3125 0  0.28125 0.3125 0  0.3125 0.3125 0  0.34375 0.3125 0  0.375 0.3125 0  0.40625 0.3125 0  0.4375 0.3125 0  0.46875 0.3125 0  0.5 0.3125 0  0.53125 0.3125 0  0.5625 0.3125 0  0.59375 0.3125 0  0.625 0.3125 0  0.65625 0.3125 0  0.6875 0.3125 0  0.71875 0.3125 0  0.75 0.3125 0  0.78125 0.3125 0  0.8125 0.3125 0  0.84375 0.3125 0  0.875 0.3125 0  0.90625 0.3125 0  0.9375 0.3125 0  0.96875 0.3125 0  1 0.3125 0  0 0.34375 0  0.03125 0.34375 0  0.0625 0.34375 0  0.09375 0.34375 0  0.125 0.34375 0  0.15625 0.34375 0  0.1875 0.34375 0  0.21875 0.34375 0  0.25 0.34375 0  0.28125 0.34375 0  0.3125 0.34375 0  0.34375 0.34375 0  0.375 0.34375 0  0.40625 0.34375 0  0.4375 0.34375 0  0.46875 0.34375 0  0.5 0.34375 0  0.53125 0.34375 0  0.5625 0.34375 0  0.59375 0.34375 0  0.625 0.34375 0  0.65625 0.34375 0  0.6875 0.34375 0  0.71875 0.34375 0  0.75 0.34375 0  0.78125 0.34375 0  0.8125 0.34375 0  0.84375 0.34375 0  0.875 0.34375 0  0.90625 0.34375 0  0.9375 0.34375 0  0.96875 0.34375 0  1 0.34375 0  0 0.375 0  0.03125 0.375 0  0.0625 0.375 0  0.09375 0.375 0  0.125 0.375 0  0.15625 0.375 0  0.1875 0.375 0  0.21875 0.375 0  0.25 0.375 0  0.28125 0.375 0  0.3125 0.375 0  0.34375 0.375 0  0.375 0.375 0  0.40625 0.375 0  0.4375 0.375 0  0.46875 0.375 0  0.5 0.375 0  0.53125 0.375 0  0.5625 0.375 0  0.59375 0.375 0  0.625 0.375 0  0.65625 0.375 0  0.6875 0.375 0  0.71875 0.375 0  0.75 0.375 0  0.78125 0.375 0  0.8125 0.375 0  0.84375 0.375 0  0.875 0.375 0  0.90625 0.375 0  0.9375 0.375 0  0.96875 0.375 0  1 0.375 0  0 0.40625 0  0.03125 0.40625 0  0.0625 0.40625 0  0.09375 0.40625 0  0.125 0.40625 0  0.15625 0.40625 0  0.1875 0.40625 0  0.21875 0.40625 0  0.25 0.40625 0  0.28125 0.40625 0  0.3125 0.40625 0  0.34375 0.40625 0  0.375 0.40625 0  0.40625 0.40625 0  0.4375 0.40625 0  0.46875 0.40625 0  0.5 0.40625 0  0.53125 0.40625 0  0.5625 0.40625 0  0.59375 0.40625 0  0.625 0.40625 0  0.65625 0.40625 0  0.6875 0.40625 0  0.71875 0.40625 0  0.75 0.40625 0  0.78125 0.40625 0  0.8125 0.40625 0  0.84375 0.40625 0  0.875 0.40625 0  0.90625 0.40625 0  0.9375 0.40625 0  0.96875 0.40625 0  1 0.40625 0  0 0.4375 0  0.03125 0.4375 0  0.0625 0.4375 0  0.09375 0.4375 0  0.125 0.4375 0  0.15625 0.4375 0  0.1875 0.4375 0  0.21875 0.4375 0  0.25 0.4375 0  0.28125 0.4375 0  0.3125 0.4375 0  0.34375 0.4375 0  0.375 0.4375 0  0.40625 0.4375 0  0.4375 0.4375 0  0.46875 0.4375 0  0.5 0.4375 0  0.53125 0.4375 0  0.5625 0.4375 0  0.59375 0.4375 0  0.625 0.4375 0  0.65625 0.4375 0  0.6875 0.4375 0  0.71875 0.4375 0  0.75 0.4375 0  0.78125 0.4375 0  0.8125 0.4375 0  0.84375 0.4375 0  0.875 0.4375 0  0.90625 0.4375 0  0.9375 0.4375 0  0.96875 0.4375 0  1 0.4375 0  0 0.46875 0  0.03125 0.46875 0  0.0625 0.46875 0  0.09375 0.46875 0  0.125 0.46875 0  0.15625 0.46875 0  0.1875 0.46875 0  0.21875 0.46875 0  0.25 0.46875 0  0.28125 0.46875 0  0.3125 0.46875 0  0.34375 0.46875 0  0.375 0.46875 0  0.40625 0.46875 0  0.4375 0.46875 0  0.46875 0.46875 0  0.5 0.46875 0  0.53125 0.46875 0  0.5625 0.46875 0  0.59375 0.46875 0  0.625 0.46875 0  0.65625 0.46875 0  0.6875 0.46875 0  0.71875 0.46875 0  0.75 0.46875 0  0.78125 0.46875 0  0.8125 0.46875 0  0.84375 0.46875 0  0.875 0.46875 0  0.90625 0.46875 0  0.9375 0.46875 0  0.96875 0.46875 0  1 0.46875 0  0 0.5 0  0.03125 0.5 0  0.0625 0.5 0  0.09375 0.5 0  0.125 0.5 0  0.15625 0.5 0  0.1875 0.5 0  0.21875 0.5 0  0.25 0.5 0  0.28125 0.5 0  0.3125 0.5 0  0.34375 0.5 0  0.375 0.5 0  0.40625 0.5 0  0.4375 0.5 0  0.46875 0.5 0  0.5 0.5 0  0.53125 0.5 0  0.5625 0.5 0  0.59375 0.5 0  0.625 0.5 0  0.65625 0.5 0  0.6875 0.5 0  0.71875 0.5 0  0.75 0.5 0  0.78125 0.5 0  0.8125 0.5 0  0.84375 0.5 0  0.875 0.5 0  0.90625 0.5 0  0.9375 0.5 0  0.96875 0.5 0  1 0.5 0  0 0.53125 0  0.03125 0.53125 0  0.0625 0.53125 0  0.09375 0.53125 0  0.125 0.53125 0  0.15625 0.53125 0  0.1875 0.53125 0  0.21875 0.53125 0  0.25 0.53125 0  0.28125 0.53125 0  0.3125 0.53125 0  0.34375 0.53125 0  0.375 0.53125 0  0.40625 0.53125 0  0.4375 0.53125 0  0.46875 0.53125 0  0.5 0.53125 0  0.53125 0.53125 0  0.5625 0.53125 0  0.59375 0.53125 0  0.625 0.53125 0  0.65625 0.53125 0  0.6875 0.53125 0  0.71875 0.53125 0  0.75 0.53125 0  0.78125 0.531
[...]
<PointData  Scalars="theta_dt"> 
<DataArray  type="Float64"  Name="theta_dt"  format="ascii">1.6864047171060958e-07  5.4575801346449548e-07  2.3820372837562245e-07  -1.9987142256016928e-07  -4.6688004481482522e-07  -1.9404057544544912e-07  3.2255502285664825e-07  8.5027551229679668e-07  1.0009959630979993e-06  8.7254819208096758e-07  -2.1303997991020764e-17  -2.2835562389749527e-17  -7.9444918115315411e-07  -1.1104157740323554e-06  -9.1056633421813382e-07  -3.6301146982691533e-07  -3.0220908026897182e-07  5.8659580347635497e-07  4.4518583511519903e-07  2.3593042332683129e-06  1.3286799588753167e-06  1.5759041562087488e-06  2.5352644461216311e-06  1.5341383422240282e-06  6.3437535370036112e-07  1.0534853877911874e-06  7.7186575213907057e-07  6.2467655434181115e-07  1.0264318074389228e-06  -6.4168292469896728e-07  -8.2846135075929026e-07  -1.0121944010795590e-06  -1.0776954283467357e-06  -9.1629729977724496e-08  1.8185435066335653e-07  5.9603264081213817e-07  2.6186007712210245e-07  -2.0590455968325987e-07  -4.2764328393695702e-07  -1.8438159156883621e-07  3.4094807087124436e-07  8.6007010568106151e-07  1.1010997135724370e-06  7.9444918112554465e-07  -2.2518815402578626e-17  -2.3781299181100117e-17  -7.2768339645809919e-07  -1.1989456734684567e-06  -1.0009959631158842e-06  -3.6461556204247297e-07  -3.2588877094220393e-07  5.7822925680675119e-07  4.8619586411832175e-07  2.4555485908604863e-06  1.3687862846417436e-06  1.6395687561653077e-06  2.4090636329575645e-06  1.6684282607825085e-06  6.4168292466134335e-07  1.0776954282835485e-06  7.0277850586484862e-07  6.7935725770415751e-07  1.0689415695170058e-06  -6.6760612982471296e-07  -8.9451192549408176e-07  -1.0534853878529537e-06  -5.7696650284726636e-08  -9.5424583169531731e-08  1.9293397301244930e-07  6.4273497203600295e-07  2.8804717156184463e-07  -2.1903097758686587e-07  -3.9836656597678772e-07  -1.7233917117617285e-07  3.5485654761221827e-07  8.9481588574455913e-07  1.2025318069301492e-06  7.2768339643281007e-07  -2.3437437465641478e-17  -2.4278001327723750e-17  -6.7786575085807461e-07  -1.2834911318252479e-06  -1.1010997135921108e-06  -3.5941509334117398e-07  -3.4574380601108540e-07  5.5942517412264607e-07  5.2429189901800077e-07  2.5119793031462430e-06  1.4560464250707392e-06  1.7435663550408551e-06  2.2517216945682279e-06  1.8341222281469309e-06  6.6760612978556977e-07  1.0824575997049525e-06  6.4371675651194818e-07  7.4682518661230337e-07  1.0912677497711230e-06  -7.0995228593148711e-07  -9.5758977999580521e-07  -1.8224874164824656e-07  -5.6630788273332382e-08  -9.7417644815997208e-08  2.0092435019103894e-07  6.8189411634427572e-07  3.1458175988036563e-07  -2.3820372839582090e-07  -3.8155345861932198e-07  -1.5887571844364926e-07  3.6301146982208778e-07  9.5157392239486641e-07  1.2967565773688299e-06  6.7786575083451672e-07  -2.3976050831005826e-17  -7.3062065572385901e-07  -6.4925634781949243e-07  -1.3566796185674348e-06  -1.2025318069516353e-06  -3.4772687270283050e-07  -3.6006281563937642e-07  5.3157801522499016e-07  5.5623480398903167e-07  2.5230793558463428e-06  1.5835006125181712e-06  1.8790896567566665e-06  2.0758130581582993e-06  2.0175420626263886e-06  7.0995228588986211e-07  1.0670186347956781e-06  5.9964751788592102e-07  8.2151080462147877e-07  -6.4631508848484658e-07  -7.6513520315855758e-07  -1.0001087775737079e-17  -1.9641450662203975e-07  -5.7283136290117454e-08  1.2148506791025486e-07  2.0512090628702220e-07  7.1013482014764513e-07  3.3923091588447406e-07  -2.6186007714430673e-07  -3.7869294090698709e-07  -1.4508428627809061e-07  3.6461556203762434e-07  1.0255375197175485e-06  1.3757625131825168e-06  6.4925634779692916e-07  -2.4081997335991392e-17  -7.1712349778084271e-07  -6.4438885352523585e-07  -1.4120233747927772e-06  -1.2967565773920000e-06  -3.3041766688754497e-07  -3.6758317741967655e-07  4.9685933275582955e-07  5.7927131650331273e-07  2.4870929729627616e-06  1.7407602951664811e-06  2.0346118552747312e-06  1.8956191603089885e-06  2.2033958162210388e-06  7.6513520311369659e-07  1.0323190646892080e-06  5.7433932448838297e-07  8.9718747550025401e-07  -6.3437535373755497e-07  2.5181078676061613e-07  -1.0409067490530091e-17  -2.1267068459676434e-07  -5.9597304916299085e-08  1.1924080731283398e-07  4.2936944560998653e-07  7.2496687313488677e-07  3.5989883184813746e-07  -2.8804717158626951e-07  -3.9012382187422741e-07  -1.3209825368260873e-07  3.5941509333639433e-07  1.1104157740125166e-06  1.4327398366515328e-06  6.4438885350284115e-07  -2.3738518652006977e-17  -7.2538427086613468e-07  -6.6383978985275690e-07  -1.4444729402789853e-06  -1.3757625132070977e-06  -3.0883726715258959e-07  3.5024532943347642e-07  4.5804376868169847e-07  5.9137012171128723e-07  2.4062124202129387e-06  1.9148435488929445e-06  2.1968249534234225e-06  1.7259483238876782e-06  2.3760436112918237e-06  8.2846135071071683e-07  9.8093211544695211e-07  5.7003348536289175e-07  9.6748689164233498e-07  5.1271362437623376e-08  2.3536439790055185e-07  -1.0648277211285529e-17  -2.2962623832776650e-07  -6.3377552976920238e-08  1.2061438000256836e-07  4.2143746725993288e-07  2.2661811885805663e-07  3.7480407309569561e-07  -3.1458175990704039e-07  -4.1499421973210174e-07  -1.2099667063211846e-07  3.4772687269820623e-07  1.1989456734470348e-06  1.4626643982576361e-06  6.6383978982968679e-07  -2.2966539264461572e-17  -7.5468890797717262e-07  -7.0615958362543329e-07  -1.4508558454808242e-06  -1.4327398366771316e-06  -2.8471033234158149e-07  3.4377505447870647e-07  4.1828262943076196e-07  1.5064832631569059e-06  2.2864355801515847e-06  2.0912368284684772e-06  2.3517373708305570e-06  1.5808990281980387e-06  2.5208059763496778e-06  8.9451192544163496e-07  9.1686499892861804e-07  5.8723999811942318e-07  -3.1227379872533090e-08  5.0886979497106763e-08  2.1697729864490028e-07  -1.0695330321182767e-17  -2.4581867806859663e-07  -6.8303740735286204e-08  1.2548705339556542e-07  4.2629213915040745e-07  2.2243167748247564e-07  3.8263232445623804e-07  -3.3923091591323904e-07  -4.5132050037852204e-07  -1.1271316535266144e-07  3.3041766688315109e-07  1.2834911318023157e-06  7.3062065569846782e-07  7.0615958360089210e-07  -2.1823307072185387e-17  -8.0255871156577131e-07  -7.6797285715125827e-07  -1.4301624598988857e-06  -1.4626643982837698e-06  -2.5999564797201693e-07  3.4773510839720335e-07  3.8084348285426586e-07  1.4786531677687639e-06  2.1371027849270202e-06  2.2550963696130749e-06  2.4858404394987172e-06  1.4726697242184074e-06  2.6252053738771274e-06  9.5758977993966006e-07  8.4523782043556186e-07  -2.4696115107998896e-08  -3.3129933067863626e-08  5.2423007615351263e-08  1.9814227637062715e-07  -1.0542784087901352e-17  -2.5983599117244351e-07  -7.3956875958484896e-08  1.3344667826279506e-07  4.4351382004813891e-07  2.2499393854399420e-07  -2.2661811887727279e-07  -3.5989883187865494e-07  -4.9614177679680848e-07  -1.0795609306917952e-07  3.0883726714848254e-07  1.3566796185431942e-06  7.1712349775592046e-07  7.6797285712456890e-07  -2.0397972602050264e-17  -8.6493970790567432e-07  -8.4424132641699801e-07  -1.3836534103634876e-06  -2.1770509929890034e-07  -2.3672426520643959e-07  3.6178318135883513e-07  3.4883726448060678e-07  1.4956862427252929e-06  1.9701483883551742e-06  2.3924899268471033e-06  2.5872466561292748e-06  1.4105155268282185e-06  2.6800360681383122e-06  1.0121944010202137e-06  -5.7175306924430906e-08  -2.6740080441233970e-08  -3.4502012111177466e-08  5.5764974917005811e-08  1.8040719198967638e-07  -1.0199931523151545e-17  -2.7043561952773834e-07  -7.9853221223318994e-08  1.4381917391740295e-07  4.7164583474998451e-07  2.3408341840456803e-07  -2.2243167750133671e-07  -3.7480407312747698e-07  -5.4575801348042192e-07  -1.0714674300458747e-07  2.8471033233779510e-07  1.4120233747675468e-06  7.2538427084092582e-07  8.4424132638765838e-07  -1.8804445500273251e-17  -9.3652614045048368e-07  -9.2866896268667782e-07  -1.3147776819193688e-06  -2.1368331304468326e-07  -2.1682987586371668e-07  3.8473103397763798e-07  3.2495565429331468e-07  1.5561101371153664e-06  1.7991268620939288e-06  2.4915751040867344e-06  2.6467039082511535e-06  1.3999408496581685e-06  6.4631508844695255e-07  3.9597500278124692e-08  -5.3441045406211557e-08  -2.8871981561279328e-08  -3.5222629742197223e-08  6.0646329964272367e-08  1.6524570901056557e-07  -9.6921976437889147e-18  -2.7665047298011590e-07  -8.5484191282255060e-08  1.5572231756797919e-07  5.0830575341670451e-07  2.4893129432261915e-07  -2.2499393856307248e-07  -3.8263232448868321e-07  -5.9603264082953168e-07  -1.1038097721655756e-07  2.5999564796855950e-07  1.4444729402531758e-06  7.5468890795094573e-07  9.2866896265440417e-07  -1.7172098927313805e-17  -1.0111923753620070e-06  -1.0142169251105622e-06  -1.2289062810173242e-06  -2.1614479892074002e-07  -2.0198557137105813e-07  4.1463527011206675e-07  3.1124086302148063e-07  1.6548139683742618e-06  1.6380927441069760e-06  2.5436147632007925e-06  2.6583992883947527e-06  1.4421981919135928e-06  4.1380783849992016e-08  4.3529983965328064e-08  -4.9266132738982329e-08  -3.0907932788081426e-08  5.7696650282804328e-08  6.6669202660734130e-08  1.5393288779122477e-07  -9.0591761064316293e-18  -2.7787294914691383e-07  -9.0358754452341484e-08  1.6813756007141246e-07  5.5037550139626268e-07  2.6828013688858000e-07  -2.3408341842441737e-07  -4.2936944562251663e-07  -6.4273497205475911e-07  -1.1741776570624314e-07  2.3672426520329149e-07  1.4508558454549011e-06  8.0255871153787978e-07  1.0142169250753157e-06  -1.5635079018930976e-17  -1.0824981273687284e-06  -1.0936862218001248e-06  -1.1329018641789448e-06  -2.2487678436653328e-07  -1.9346074678445250e-07  4.4895241328780112e-07  3.0890748094522593e-07  1.7834387563389675e-06  1.5004268618099769e-06  1.5872802516001479e-06  2.6204828532941530e-06  2.7281571179539570e-08  4.4597214609122999e-08  4.7883163012659432e-08  -4.4989516183696246e-08  -3.2670395163549487e-08  5.6630788271445689e-08  7.3336399606089297e-08  1.4743613231694803e-07  -8.3514566223923898e-18  -2.7390968008927595e-07  -9.4044807379499249e-08  1.7999403313587304e-07  5.9425518045896672e-07  2.9048424862833290e-07  -2.4893129434372685e-07  -4.2143746727223132e-07  -6.8189411636417475e-07  -1.2769586238111756e-07  2.1682987586083330e-07  1.4301624598733331e-06  8.6493970787561471e-07  1.0936862217621163e-06  -1.4321101556013979e-17  -1.1442253944131846e-06  -1.1603199331287216e-06  -1.0345587104036834e-06  -2.3914068487636708e-07  -1.9201036576885113e-07  4.8474595380608042e-07  3.1823188143739728e-07  1.9310444415231915e-06  1.3977067310302568e-06  1.5579575489255943e-06  -6.6743503156252845e-09  2.4913355683941816e-08  4.8288287485211373e-08  5.2294107272380282e-08  -4.0962647812185599e-08  -3.4003136041330424e-08  5.7283136288209030e-08  8.0092067998036401e-08  1.4633079921511495e-07  -7.6264965805457056e-18  -2.6500210543485688e-07  -9.6206041527727769e-08  1.9025782895120039e-07  6.3615997875350190e-07  3.1364362903361136e-07  -2.6828013691132866e-07  -4.2629213916284729e-07  -7.1013482016836832e-07  -1.4037751885463310e-07  2.0198557136837222e-07  1.3836534103387657e-06  9.3652614041793739e-07  1.1603199330883973e-06  -1.3340670278631454e-17  -1.1909023920097999e-06  -1.2083746835118289e-06  -9.4195865370636066e-07  -2.5772852645482309e-07  -1.9780621617557731e-07  5.1892854419199358e-07  3.3851916731598054e-07  2.0850004408997843e-06  1.3387163555065411e-06  -7.0386568010477806e-09  -6.9507691111913902e-09  2.2683440527214327e-08  5.2138158258825480e-08  5.6391629038240722e-08  -3.7520132684411148e-08  -3.4784558650479205e-08  5.9597304914313494e-08  8.6367708008207507e-08  1.5074780773833425e-07  -6.9438731502283363e-18  -2.5181078677489234e-07  -9.6631161324570057e-08  1.9801911817625445e-07  6.7243571531016861e-07  3.3576068151074485e-07  -2.9048424865296446e-07  -4.4351382006108195e-07  -7.2496687315604279e-07  -1.5441585331120188e-07  1.9346074678187980e-07  1.3147776818958758e-06  1.0111923753268644e-06  1.2083746834698345e-06  -1.2777625734305286e-17  -1.2182703986923203e-06  -1.2336130985645682e-06  -8.6279612178239696e-07  -2.7905933784583343e-07  -2.1041636459310530e-07  5.4851939521932200e-07  3.6815124817737452e-07  2.2320273845310429e-06  -1.7878521550970835e-18  -6.9382652703407849e-09  -7.0959446086241710e-09  2.0777116318805210e-08  5.5814758946760889e-08  5.9827334321698313e-08  -3.4951481699606774e-08  -3.4938266299935667e-08  6.3377552974808625e-08  9.1629729974671657e-08  1.6035798210975061e-07  -6.3603076425831868e-18  -2.3536439791389572e-07  -9.5252922482476804e-08  2.0256977538030008e-07  6.9986674456424975e-07  3.5490675550998708e-07  -3.1364362906020671e-07  -4.7164583476374779e-07  -1.2148506791268037e-07  -1.6864047171397669e-07  1.9201036576629777e-07  1.2289062809953684e-06  1.0824981273311089e-06  1.2336130985216969e-06  -1.2681831491299786e-17  -1.2236537494275423e-06  -8.6627875710911033e-07  -8.0372857725789277e-07  -3.0130784664221144e-07  -2.2883504020199196e-07  5.7089543984947916e-07  4.0471286867645656e-07  -2.3453861874437482e-18  -1.9525471272874148e-18  -6.7126320767728152e-09  2.0860982156228763e-08  1.9354702364606468e-08  5.8997482725603128e-08  6.2305088546917649e-08  -3.3476350339932851e-08  -3.4439945933814571e-08  6.8303740733010465e-08  9.5424583166352445e-08  1.7439482596211290e-07  -5.9248771331231786e-18  -2.1697729865720187e-07  -9.2155286364659660e-08  2.0346490026423207e-07  7.1595031100144892e-07  3.6938465632817137e-07  -3.3576068153921558e-07  -5.0830575343153859e-07  -1.1924080731521470e-07  -1.8185435066698753e-07  1.9780621617294666e-07  1.1329018641587030e-06  1.1442253943734202e-06  -1.4378907998274489e-17  -1.3064633731754689e-17  -1.2062009205096592e-06  -8.5027551231198790e-07  -7.6980711895838444e-07  -3.2255502286093815e-07  -2.5156097129193995e-07  5.8401512985736778e-07  5.8339418806796252e-09  -2.3557500906216533e-18  -2.1055395918352150e-18  -6.3784895663708488e-09  2.0475605738516989e-08  1.8537834894993356e-08  6.1404198546485225e-08  6.3606408167480018e-08  -3.3225377138331643e-08  -3.3319954886402021e-08  7.3956875956020890e-08  9.7417644812751524e-08  1.9171422247481520e-07  -5.6748170030147785e-18  -1.9814227638186077e-07  -8.7567965269071939e-08  2.0056290442041847e-07  7.1911398602568727e-07  3.7787344752603705e-07  -3.5490675554008126e-07  -5.5037550141232359e-07  -1.2061438000497648e-07  -1.9293397301630153e-07  2.1041636459030713e-07  1.0345587103851986e-06  1.1909023919684123e-06  -1.4113278508086390e-17  -1.3897504273253932e-17  -1.1669751262837412e-06  -8.6007010569642806e-07  -7.6403585192065360e-07  -3.4094807087577847e-07  -2.7671811240705379e-07  6.7126320754270089e-09  6.2910622922078121e-09  -2.3221503052868392e-18  -2.2338212822841961e-18  -5.9618945463643272e-09  2.0711470737102652e-08  1.8398856191308289e-08  6.2815322184686111e-08  -3.7671580907520602e-08  -3.4228288178210822e-08  -3.1661348657893375e-08  7.9853221220658477e-08  1.6591271542060700e-07  2.1088644034233211e-07  -5.6322727299000124e-18  -1.8040719199990462e-07  -8.1848683632940693e-08  1.9404057544157493e-07  7.0885734816842178e-07  3.7954321255007746e-07  -3.6938465635949300e-07  -5.9425518047630845e-07  -1.2548705339807086e-07  -2.0092435019505065e-07  2.2883504019894886e-07  9.4195865368952980e-07  1.2182703986499824e-06  -1.4275853840794962e-17  -1.5114014326914314e-17  -1.1088852453229826e-06  -8.9481588576054804e-07  -7.8709834380944308e-07  -3.5485654761693709e-07  4.2026496864587213e-09  6.3784895650920333e-09  6.6743503142871528e-09  -2.2466337072740078e-18  -2.3263351838864803e-18  -5.4961403891784726e-09  2.1548188816558597e-08  1.8954227343863982e-08  6.3092893494987317e-08  -3.6975653036485810e-08  -3.6410341919242108e-08  -2.9593467219768931e-08  8.5484191279407004e-08  1.6284771841122437e-07  2.3031306705107819e-07  -5.8022833960516567e-18  -1.6524570901993418e-07  -7.5454514067247964e-08  1.8438159156515482e-07  6.8580522476012902e-07  3.7412983253250389e-07  -3.7787344755807866e-07  -6.3615997877206653e-07  -1.3344667826545966e-07  -2.0512090629111771e-07  2.5156097128859465e-07  8.6279612176698127e-07  1.2236537493850170e-06  -1.4852580870945726e-17  -1.6615008439453868e-17  -1.0364611916103572e-06  -9.5157392241186901e-07  -8.3727587172806743e-07  -1.3081697408452630e-19  4.1250118231531619e-09  5.9618945451690363e-09  6.9507691097978399e-09  -2.1348004027942660e-18  -2.3749236008103467e-18  -5.0190401243156099e-09  2.2914987182660845e-08  2.0162559541743640e-08  6.2193007006168562e-08  -3.7401587314696189e-08  -3.9597500284590743e-08  -2.7281571181360131e-08  9.0358754449330957e-08  1.6472361294461480e-07  2.4835932224936333e-07  -6.1721790252154270e-18  -1.5393288779995194e-07  -6.8904577912512493e-08  1.7233917117273207e-07  6.5166709878700141e-07  3.6196308686421460e-07  -3.7954321258226080e-07  -6.7243571532979161e-07  -1.4381917392027450e-07  2.1770509929600550e-07  2.7671811240337386e-07  8.0372857724353249e-07  1.2062009204677404e-06  -1.5794677835086412e-17  -1.8276578236205328e-17  -9.5549093878213260e-07  -1.0255375197358732e-06  -2.2081673779554311e-19  -1.2529582844302668e-19  4.1725291430439074e-09  5.4961403880765531e-09  7.0959446072015147e-09  -1.9953712781938456e-18  -4.2026496873013016e-09  -4.5698018206755815e-09  2.4696115106350855e-08  2.1927477609605782e-08  6.0170483184777148e-08  -3.8912565685271025e-08  -4.3529983972436279e-08  -2.4913355685604343e-08  9.4044807376365982e-08  1.7137824538542747e-07  2.6349081339797761e-07  -6.7124571708114422e-18  -1.4743613232530676e-07  -6.2737148498173913e-08  1.5887571844047699e-07  6.0910509955005217e-07  3.4394522842442979e-07  -3.7412983256422802e-07  -6.9986674458467405e-07  -1.5572231757108836e-07  2.1368331304184154e-07  3.0220908026495291e-07  7.6980711894463042e-07  1.1669751262431851e-06  -1.7022360901784680e-17  -1.9960196501711627e-17  -8.7254819211129030e-07  -2.3319649865370040e-19  -2.2982463290930350e-19  -1.2435648186276007e-19  4.3410942157689213e-09  5.0190401233093538e-09  -1.4065741037746483e-18  -1.8394892073654068e-18  -4.1250118239801812e-09  -4.1857540908819298e-09  2.6740080439449520e-08  2.4105126385302089e-08  5.7175306915094499e-08  -4.1380783856749301e-08  -4.7883163020478486e-08  -2.2683440528728047e-08  9.6206041524522398e-08  1.8224874163791385e-07  2.7440330822338287e-07  -7.3790807743182976e-18  -1.4633079922341113e-07  -5.7464696781462712e-08  1.4508428627519379e-07  5.6152068991779093e-07  3.2148130999583078e-07  -3.6196308689490727e-07  -7.1595031102234194e-07  -1.6813756007476981e-07  2.1614479891786559e-07  3.2588877093787008e-07  7.6403585190700229e-07  1.1088852452844462e-06  -1.8431210650860958e-17  -2.1524184183738884e-17  -1.2529582844302668e-19  -2.3806709889233083e-19  -2.3510620941084590e-19  -1.2811019361210886e-19  4.6164491670235365e-09  4.5698018197593904e-09  -1.3805896853374296e-18  -1.6798097367000695e-18  -4.1725291438804517e-09  -3.8991948332660857e-09  2.8871981559352629e-08  2.6515739060862722e-08  5.3441045397484908e-08  -4.4597214616405478e-08  -5.2294107280919631e-08  -2.0777116320191704e-08  9.6631161321350630e-08  1.9641450661090431e-07  2.8013456416517348e-07  -8.1170194751667478e-18  -1.5074780774688081e-07  -5.3530628871289362e-08  1.3209825367997117e-07  5.1277708969731023e-07  2.9636659932396495e-07  -3.4394522845359420e-07  -7.1911398604667241e-07  -1.7999403313946694e-07  2.2487678436354291e-07  3.4574380600648754e-07  7.8709834379537916e-07  1.0364611915743384e-06  -1.9900672147684698e-17  -2.3277699804025192e-19  -1.2435648186276007e-19  -1.4099780563402279e-19  -2.3614510782506151e-19  -1.3627721983848887e-19  4.9752748758986004e-09  4.1857540900427327e-09  -1.3964931359282430e-18  -1.5294553147664447e-18  -4.3410942166392600e-09  -3.7346288607712994e-09  3.0907932786018927e-08  2.8958339750625972e-08  4.9266132730937415e-08  -4.8288287493096542e-08  -5.6391629047449201e-08  -1.9354702365898031e-08  9.5252922479303275e-08  2.1267068458470698e-07  -6.3859807205277863e-18  -8.8647503727802411e-18  