<?xml version="1.0"?>
<VTKFile type="UnstructuredGrid"  version="0.1"  >
<UnstructuredGrid>
<Piece  NumberOfPoints="1089" NumberOfCells="2048">
<Points>
<DataArray  type="Float64"  NumberOfComponents="3"  format="ascii">0 0 0  0.03125 0 0  0.0625 0 0  0.09375 0 0  0.125 0 0  0.15625 0 0  0.1875 0 0  0.21875 0 0  0.25 0 0  0.28125 0 0  0.3125 0 0  0.34375 0 0  0.375 0 0  0.40625 0 0  0.4375 0 0  0.46875 0 0  0.5 0 0  0.53125 0 0  0.5625 0 0  0.59375 0 0  0.625 0 0  0.65625 0 0  0.6875 0 0  0.71875 0 0  0.75 0 0  0.78125 0 0  0.8125 0 0  0.84375 0 0  0.875 0 0  0.90625 0 0  0.9375 0 0  0.96875 0 0  1 0 0  0 0.03125 0  0.03125 0.03125 0  0.0625 0.03125 0  0.09375 0.03125 0  0.125 0.03125 0  0.15625 0.03125 0  0.1875 0.03125 0  0.21875 0.03125 0  0.25 0.03125 0  0.28125 0.03125 0  0.3125 0.03125 0  0.34375 0.03125 0  0.375 0.03125 0  0.40625 0.03125 0  0.4375 0.03125 0  0.46875 0.03125 0  0.5 0.03125 0  0.53125 0.03125 0  0.5625 0.03125 0  0.59375 0.03125 0  0.625 0.03125 0  0.65625 0.03125 0  0.6875 0.03125 0  0.71875 0.03125 0  0.75 0.03125 0  0.78125 0.03125 0  0.8125 0.03125 0  0.84375 0.03125 0  0.875 0.03125 0  0.90625 0.03125 0  0.9375 0.03125 0  0.96875 0.03125 0  1 0.03125 0  0 0.0625 0  0.03125 0.0625 0  0.0625 0.0625 0  0.09375 0.0625 0  0.125 0.0625 0  0.15625 0.0625 0  0.1875 0.0625 0  0.21875 0.0625 0  0.25 0.0625 0  0.28125 0.0625 0  0.3125 0.0625 0  0.34375 0.0625 0  0.375 0.0625 0  0.40625 0.0625 0  0.4375 0.0625 0  0.46875 0.0625 0  0.5 0.0625 0  0.53125 0.0625 0  0.5625 0.0625 0  0.59375 0.0625 0  0.625 0.0625 0  0.65625 0.0625 0  0.6875 0.0625 0  0.71875 0.0625 0  0.75 0.0625 0  0.78125 0.0625 0  0.8125 0.0625 0  0.84375 0.0625 0  0.875 0.0625 0  0.90625 0.0625 0  0.9375 0.0625 0  0.96875 0.0625 0  1 0.0625 0  0 0.09375 0  0.03125 0.09375 0  0.0625 0.09375 0  0.09375 0.09375 0  0.125 0.09375 0  0.15625 0.09375 0  0.1875 0.09375 0  0.21875 0.09375 0  0.25 0.09375 0  0.28125 0.09375 0  0.3125 0.09375 0  0.34375 0.09375 0  0.375 0.09375 0  0.40625 0.09375 0  0.4375 0.09375 0  0.46875 0.09375 0  0.5 0.09375 0  0.53125 0.09375 0  0.5625 0.09375 0  0.59375 0.09375 0  0.625 0.09375 0  0.65625 0.09375 0  0.6875 0.09375 0  0.71875 0.09375 0  0.75 0.09375 0  0.78125 0.09375 0  0.8125 0.09375 0  0.84375 0.09375 0  0.875 0.09375 0  0.90625 0.09375 0  0.9375 0.09375 0  0.96875 0.09375 0  1 0.09375 0  0 0.125 0  0.03125 0.125 0  0.0625 0.125 0  0.09375 0.125 0  0.125 0.125 0  0.15625 0.125 0  0.1875 0.125 0  0.21875 0.125 0  0.25 0.125 0  0.28125 0.125 0  0.3125 0.125 0  0.34375 0.125 0  0.375 0.125 0  0.40625 0.125 0  0.4375 0.125 0  0.46875 0.125 0  0.5 0.125 0  0.53125 0.125 0  0.5625 0.125 0  0.59375 0.125 0  0.625 0.125 0  0.65625 0.125 0  0.6875 0.125 0  0.71875 0.125 0  0.75 0.125 0  0.78125 0.125 0  0.8125 0.125 0  0.84375 0.125 0  0.875 0.125 0  0.90625 0.125 0  0.9375 0.125 0  0.96875 0.125 0  1 0.125 0  0 0.15625 0  0.03125 0.15625 0  0.0625 0.15625 0  0.09375 0.15625 0  0.125 0.15625 0  0.15625 0.15625 0  0.1875 0.15625 0  0.21875 0.15625 0  0.25 0.15625 0  0.28125 0.15625 0  0.3125 0.15625 0  0.34375 0.15625 0  0.375 0.15625 0  0.40625 0.15625 0  0.4375 0.15625 0  0.46875 0.15625 0  0.5 0.15625 0  0.53125 0.15625 0  0.5625 0.15625 0  0.59375 0.15625 0  0.625 0.15625 0  0.65625 0.15625 0  0.6875 0.15625 0  0.71875 0.15625 0  0.75 0.15625 0  0.78125 0.15625 0  0.8125 0.15625 0  0.84375 0.15625 0  0.875 0.15625 0  0.90625 0.15625 0  0.9375 0.15625 0  0.96875 0.15625 0  1 0.15625 0  0 0.1875 0  0.03125 0.1875 0  0.0625 0.1875 0  0.09375 0.1875 0  0.125 0.1875 0  0.15625 0.1875 0  0.1875 0.1875 0  0.21875 0.1875 0  0.25 0.1875 0  0.28125 0.1875 0  0.3125 0.1875 0  0.34375 0.1875 0  0.375 0.1875 0  0.40625 0.1875 0  0.4375 0.1875 0  0.46875 0.1875 0  0.5 0.1875 0  0.53125 0.1875 0  0.5625 0.1875 0  0.59375 0.1875 0  0.625 0.1875 0  0.65625 0.1875 0  0.6875 0.1875 0  0.71875 0.1875 0  0.75 0.1875 0  0.78125 0.1875 0  0.8125 0.1875 0  0.84375 0.1875 0  0.875 0.1875 0  0.90625 0.1875 0  0.9375 0.1875 0  0.96875 0.1875 0  1 0.1875 0  0 0.21875 0  0.03125 0.21875 0  0.0625 0.21875 0  0.09375 0.21875 0  0.125 0.21875 0  0.15625 0.21875 0  0.1875 0.21875 0  0.21875 0.21875 0  0.25 0.21875 0  0.28125 0.21875 0  0.3125 0.21875 0  0.34375 0.21875 0  0.375 0.21875 0  0.40625 0.21875 0  0.4375 0.21875 0  0.46875 0.21875 0  0.5 0.21875 0  0.53125 0.21875 0  0.5625 0.21875 0  0.59375 0.21875 0  0.625 0.21875 0  0.65625 0.21875 0  0.6875 0.21875 0  0.71875 0.21875 0  0.75 0.21875 0  0.78125 0.21875 0  0.8125 0.21875 0  0.84375 0.21875 0  0.875 0.21875 0  0.90625 0.21875 0  0.9375 0.21875 0  0.96875 0.21875 0  1 0.21875 0  0 0.25 0  0.03125 0.25 0  0.0625 0.25 0  0.09375 0.25 0  0.125 0.25 0  0.15625 0.25 0  0.1875 0.25 0  0.21875 0.25 0  0.25 0.25 0  0.28125 0.25 0  0.3125 0.25 0  0.34375 0.25 0  0.375 0.25 0  0.40625 0.25 0  0.4375 0.25 0  0.46875 0.25 0  0.5 0.25 0  0.53125 0.25 0  0.5625 0.25 0  0.59375 0.25 0  0.625 0.25 0  0.65625 0.25 0  0.6875 0.25 0  0.71875 0.25 0  0.75 0.25 0  0.78125 0.25 0  0.8125 0.25 0  0.84375 0.25 0  0.875 0.25 0  0.90625 0.25 0  0.9375 0.25 0  0.96875 0.25 0  1 0.25 0  0 0.28125 0  0.03125 0.28125 0  0.0625 0.28125 0  0.09375 0.28125 0  0.125 0.28125 0  0.15625 0.28125 0  0.1875 0.28125 0  0.21875 0.28125 0  0.25 0.28125 0  0.28125 0.28125 0  0.3125 0.28125 0  0.34375 0.28125 0  0.375 0.28125 0  0.40625 0.28125 0  0.4375 0.28125 0  0.46875 0.28125 0  0.5 0.28125 0  0.53125 0.28125 0  0.5625 0.28125 0  0.59375 0.28125 0  0.625 0.28125 0  0.65625 0.28125 0  0.6875 0.28125 0  0.71875 0.28125 0  0.75 0.28125 0  0.78125 0.28125 0  0.8125 0.28125 0  0.84375 0.28125 0  0.875 0.28125 0  0.90625 0.28125 0  0.9375 0.28125 0  0.96875 0.28125 0  1 0.28125 0  0 0.3125 0  0.03125 0.3125 0  0.0625 0.3125 0  0.09375 0.3125 0  0.125 0.3125 0  0.15625 0.3125 0  0.1875 0.3125 0  0.21875 0.3125 0  0.25 0.3125 0  0.28125 0.3125 0  0.3125 0.3125 0  0.34375 0.3125 0  0.375 0.3125 0  0.40625 0.3125 0  0.4375 0.3125 0  0.46875 0.3125 0  0.5 0.3125 0  0.53125 0.3125 0  0.5625 0.3125 0  0.59375 0.3125 0  0.625 0.3125 0  0.65625 0.3125 0  0.6875 0.3125 0  0.71875 0.3125 0  0.75 0.3125 0  0.78125 0.3125 0  0.8125 0.3125 0  0.84375 0.3125 0  0.875 0.3125 0  0.90625 0.3125 0  0.9375 0.3125 0  0.96875 0.3125 0  1 0.3125 0  0 0.34375 0  0.03125 0.34375 0  0.0625 0.34375 0  0.09375 0.34375 0  0.125 0.34375 0  0.15625 0.34375 0  0.1875 0.34375 0  0.21875 0.34375 0  0.25 0.34375 0  0.28125 0.34375 0  0.3125 0.34375 0  0.34375 0.34375 0  0.375 0.34375 0  0.40625 0.34375 0  0.4375 0.34375 0  0.46875 0.34375 0  0.5 0.34375 0  0.53125 0.34375 0  0.5625 0.34375 0  0.59375 0.34375 0  0.625 0.34375 0  0.65625 0.34375 0  0.6875 0.34375 0  0.71875 0.34375 0  0.75 0.34375 0  0.78125 0.34375 0  0.8125 0.34375 0  0.84375 0.34375 0  0.875 0.34375 0  0.90625 0.34375 0  0.9375 0.34375 0  0.96875 0.34375 0  1 0.34375 0  0 0.375 0  0.03125 0.375 0  0.0625 0.375 0  0.09375 0.375 0  0.125 0.375 0  0.15625 0.375 0  0.1875 0.375 0  0.21875 0.375 0  0.25 0.375 0  0.28125 0.375 0  0.3125 0.375 0  0.34375 0.375 0  0.375 0.375 0  0.40625 0.375 0  0.4375 0.375 0  0.46875 0.375 0  0.5 0.375 0  0.53125 0.375 0  0.5625 0.375 0  0.59375 0.375 0  0.625 0.375 0  0.65625 0.375 0  0.6875 0.375 0  0.71875 0.375 0  0.75 0.375 0  0.78125 0.375 0  0.8125 0.375 0  0.84375 0.375 0  0.875 0.375 0  0.90625 0.375 0  0.9375 0.375 0  0.96875 0.375 0  1 0.375 0  0 0.40625 0  0.03125 0.40625 0  0.0625 0.40625 0  0.09375 0.40625 0  0.125 0.40625 0  0.15625 0.40625 0  0.1875 0.40625 0  0.21875 0.40625 0  0.25 0.40625 0  0.28125 0.40625 0  0.3125 0.40625 0  0.34375 0.40625 0  0.375 0.40625 0  0.40625 0.40625 0  0.4375 0.40625 0  0.46875 0.40625 0  0.5 0.40625 0  0.53125 0.40625 0  0.5625 0.40625 0  0.59375 0.40625 0  0.625 0.40625 0  0.65625 0.40625 0  0.6875 0.40625 0  0.71875 0.40625 0  0.75 0.40625 0  0.78125 0.40625 0  0.8125 0.40625 0  0.84375 0.40625 0  0.875 0.40625 0  0.90625 0.40625 0  0.9375 0.40625 0  0.96875 0.40625 0  1 0.40625 0  0 0.4375 0  0.03125 0.4375 0  0.0625 0.4375 0  0.09375 0.4375 0  0.125 0.4375 0  0.15625 0.4375 0  0.1875 0.4375 0  0.21875 0.4375 0  0.25 0.4375 0  0.28125 0.4375 0  0.3125 0.4375 0  0.34375 0.4375 0  0.375 0.4375 0  0.40625 0.4375 0  0.4375 0.4375 0  0.46875 0.4375 0  0.5 0.4375 0  0.53125 0.4375 0  0.5625 0.4375 0  0.59375 0.4375 0  0.625 0.4375 0  0.65625 0.4375 0  0.6875 0.4375 0  0.71875 0.4375 0  0.75 0.4375 0  0.78125 0.4375 0  0.8125 0.4375 0  0.84375 0.4375 0  0.875 0.4375 0  0.90625 0.4375 0  0.9375 0.4375 0  0.96875 0.4375 0  1 0.4375 0  0 0.46875 0  0.03125 0.46875 0  0.0625 0.46875 0  0.09375 0.46875 0  0.125 0.46875 0  0.15625 0.46875 0  0.1875 0.46875 0  0.21875 0.46875 0  0.25 0.46875 0  0.28125 0.46875 0  0.3125 0.46875 0  0.34375 0.46875 0  0.375 0.46875 0  0.40625 0.46875 0  0.4375 0.46875 0  0.46875 0.46875 0  0.5 0.46875 0  0.53125 0.46875 0  0.5625 0.46875 0  0.59375 0.46875 0  0.625 0.46875 0  0.65625 0.46875 0  0.6875 0.46875 0  0.71875 0.46875 0  0.75 0.46875 0  0.78125 0.46875 0  0.8125 0.46875 0  0.84375 0.46875 0  0.875 0.46875 0  0.90625 0.46875 0  0.9375 0.46875 0  0.96875 0.46875 0  1 0.46875 0  0 0.5 0  0.03125 0.5 0  0.0625 0.5 0  0.09375 0.5 0  0.125 0.5 0  0.15625 0.5 0  0.1875 0.5 0  0.21875 0.5 0  0.25 0.5 0  0.28125 0.5 0  0.3125 0.5 0  0.34375 0.5 0  0.375 0.5 0  0.40625 0.5 0  0.4375 0.5 0  0.46875 0.5 0  0.5 0.5 0  0.53125 0.5 0  0.5625 0.5 0  0.59375 0.5 0  0.625 0.5 0  0.65625 0.5 0  0.6875 0.5 0  0.71875 0.5 0  0.75 0.5 0  0.78125 0.5 0  0.8125 0.5 0  0.84375 0.5 0  0.875 0.5 0  0.90625 0.5 0  0.9375 0.5 0  0.96875 0.5 0  1 0.5 0  0 0.53125 0  0.03125 0.53125 0  0.0625 0.53125 0  0.09375 0.53125 0  0.125 0.53125 0  0.15625 0.53125 0  0.1875 0.53125 0  0.21875 0.53125 0  0.25 0.53125 0  0.28125 0.53125 0  0.3125 0.53125 0  0.34375 0.53125 0  0.375 0.53125 0  0.40625 0.53125 0  0.4375 0.53125 0  0.46875 0.53125 0  0.5 0.53125 0  0.53125 0.53125 0  0.5625 0.53125 0  0.59375 0.53125 0  0.625 0.53125 0  0.65625 0.53125 0  0.6875 0.53125 0  0.71875 0.53125 0  0.75 0.53125 0  0.78125 0.531
[...]
<PointData  Scalars="phi"> 
<DataArray  type="Float64"  Name="phi"  format="ascii">0.0000000000000000e+00  0.0000000000000000e+00  0.0000000000000000e+00  0.0000000000000000e+00  0.0000000000000000e+00  0.0000000000000000e+00  0.0000000000000000e+00  0.0000000000000000e+00  0.0000000000000000e+00  0.0000000000000000e+00  0.0000000000000000e+00  0.0000000000000000e+00  0.0000000000000000e+00  0.0000000000000000e+00  0.0000000000000000e+00  0.0000000000000000e+00  0.0000000000000000e+00  0.0000000000000000e+00  0.0000000000000000e+00  0.0000000000000000e+00  0.0000000000000000e+00  0.0000000000000000e+00  0.0000000000000000e+00  0.0000000000000000e+00  0.0000000000000000e+00  0.0000000000000000e+00  0.0000000000000000e+00  0.0000000000000000e+00  0.0000000000000000e+00  0.0000000000000000e+00  0.0000000000000000e+00  0.0000000000000000e+00  0.0000000000000000e+00  0.0000000000000000e+00  -6.9334824885165620e-17  6.3207344788706696e-06  2.4905789095815701e-05  6.1079424619306041e-05  1.1929400764222665e-04  2.0290858471878683e-04  3.1400981985464427e-04  4.5328356485999175e-04  6.1994288069735332e-04  8.1171593112375488e-04  1.0248947455660695e-03  1.2544434273662512e-03  1.4941620350577768e-03  1.7369001681985575e-03  1.9748123253589085e-03  2.1996454436479136e-03  2.4030477396828186e-03  2.5768871007522693e-03  2.7135668561447199e-03  2.8063268094175439e-03  2.8495179326845210e-03  2.8388400969366692e-03  2.7715336061252156e-03  2.6465170741148117e-03  2.4644662858304368e-03  2.2278310828184899e-03  1.9407900277855885e-03  1.6091458155965814e-03  1.2401688000093565e-03  8.4240394643426704e-04  4.2547619674769088e-04  0.0000000000000000e+00  0.0000000000000000e+00  -6.3207344791442138e-06  -2.6995341852541727e-16  3.0835245157115669e-05  9.6836433993077470e-05  2.0692380686698639e-04  3.6784266955065879e-04  5.8380522176557873e-04  8.5623361831496181e-04  1.1836155836491397e-03  1.5614793045545779e-03  1.9824895624837597e-03  2.4366622726314079e-03  2.9116899317583591e-03  3.3933661085201543e-03  3.8660932008400747e-03  4.3134543823317665e-03  4.7188280900061445e-03  5.0660216675058488e-03  5.3398999397925341e-03  5.5269845907521143e-03  5.6160012440316480e-03  5.5983530750124168e-03  5.4685025423398545e-03  5.2242463292764317e-03  4.8668727205659181e-03  4.4011953025978774e-03  3.8354619886625196e-03  3.1811439521722334e-03  2.4526152969112989e-03  1.6667416253716713e-03  8.4240394643426899e-04  0.0000000000000000e+00  0.0000000000000000e+00  -2.4905789096217377e-05  -3.0835245157908702e-05  -5.8247921878071538e-16  8.3582560897284931e-05  2.3332371493288735e-04  4.5939862275255517e-04  7.6821020689261054e-04  1.1620042948141626e-03  1.6386525768022980e-03  2.1916132685689321e-03  2.8100723601217027e-03  3.4792612340422326e-03  4.1809395102299380e-03  4.8940254799075050e-03  5.5953506751177107e-03  6.2605102029334968e-03  6.8647766448307161e-03  7.3840427289947400e-03  7.7957567279464419e-03  8.0798146664581606e-03  8.2193749437232191e-03  8.2015638259016095e-03  8.0180443485339259e-03  7.6654263377169372e-03  7.1455013339975799e-03  6.4652929781090340e-03  5.6369206708662472e-03  4.6772818057249019e-03  3.6075652516568647e-03  2.4526152969113085e-03  1.2401688000093641e-03  0.0000000000000000e+00  0.0000000000000000e+00  -6.1079424619826268e-05  -9.6836433994104684e-05  -8.3582560898793869e-05  -9.7709451355510584e-16  1.7184199272543473e-04  4.4560513431494839e-04  8.2997080576845009e-04  1.3281287863952790e-03  1.9374876367046440e-03  2.6496196744309323e-03  3.4504443148263625e-03  4.3206442223242356e-03  5.2362996059325635e-03  6.1697174349666668e-03  7.0904246831805240e-03  7.9662882227051028e-03  8.7647189343944415e-03  9.4539141737782356e-03  1.0004091065457476e-02  1.0388663260050036e-02  1.0585315773773914e-02  1.0576936269256714e-02  1.0352366488631699e-02  9.9069443167381088e-03  9.2428148791211754e-03  8.3689978637223484e-03  7.3012075447510842e-03  6.0614313613797481e-03  4.6772818057249279e-03  3.1811439521722629e-03  1.6091458155966000e-03  0.0000000000000000e+00  0.0000000000000000e+00  -1.1929400764285324e-04  -2.0692380686822374e-04  -2.3332371493470471e-04  -1.7184199272778764e-04  -1.4159456727762526e-15  2.9941479190457665e-04  7.3746670622565325e-04  1.3184367219425054e-03  2.0394608061749843e-03  2.8904576247743433e-03  3.8543502784302514e-03  4.9075752498126245e-03  6.0208605310939842e-03  7.1602443651644851e-03  8.2882965848445483e-03  9.3654965371125984e-03  1.0351715342752118e-02  1.1207746007415031e-02  1.1896822832788478e-02  1.2386071758260078e-02  1.2647835689944386e-02  1.2660823454720567e-02  1.2411037578450981e-02  1.1892444378677824e-02  1.1107359561358308e-02  1.0066533233693916e-02  8.7889295459325032e-03  7.3012075447511388e-03  5.6369206708663201e-03  3.8354619886625833e-03  1.9407900277856249e-03  0.0000000000000000e+00  0.0000000000000000e+00  -2.0290858471950542e-04  -3.6784266955207774e-04  -4.5939862275463895e-04  -4.4560513431764507e-04  -2.9941479190782048e-04  -1.8564042077870542e-15  4.6620010979056992e-04  1.1047242551170369e-03  1.9126563240051951e-03  2.8785342125320305e-03  3.9826056979531260e-03  5.1974233691676822e-03  6.4887574220994140e-03  7.8167927089153252e-03  9.1375652876271116e-03  1.0404584283331023e-02  1.1570577509049815e-02  1.2589294288075575e-02  1.3417296465561966e-02  1.4015668791521323e-02  1.4351582695095476e-02  1.4399652843729354e-02  1.4143033584908100e-02  1.3574212104833276e-02  1.2695466527650502e-02  1.1518969768698326e-02  1.0066533233694011e-02  8.3689978637224872e-03  6.4652929781091762e-03  4.4011953025979902e-03  2.2278310828185519e-03  0.0000000000000000e+00  0.0000000000000000e+00  -3.1400981985543871e-04  -5.8380522176714736e-04  -7.6821020689491338e-04  -8.2997080577142893e-04  -7.3746670622923372e-04  -4.6620010979466419e-04  -2.2547106702437259e-15  6.6810679161942205e-04  1.5353935013331199e-03  2.5893218479021629e-03  3.8078273314800688e-03  5.1599923907189949e-03  6.6070833005872258e-03  8.1039125064437806e-03  9.6004753565389813e-03  1.1043799407666494e-02  1.2379936054392396e-02  1.3556018497336874e-02  1.4522307243130333e-02  1.5234144528604335e-02  1.5653742278749754e-02  1.5751734319678967e-02  1.5508432339584547e-02  1.4914736183588106e-02  1.3972662051056708e-02  1.2695466527650646e-02  1.1107359561358533e-02  9.2428148791214339e-03  7.1455013339978193e-03  4.8668727205660976e-03  2.4644662858305322e-03  0.0000000000000000e+00  0.0000000000000000e+00  -4.5328356486084469e-04  -8.5623361831664547e-04  -1.1620042948166332e-03  -1.3281287863984733e-03  -1.3184367219463413e-03  -1.1047242551214184e-03  -6.6810679162424068e-04  -2.5698237400546646e-15  8.9731091778317228e-04  2.0105378092343269e-03  3.3156992465763831e-03  4.7788633487710636e-03  6.3572969748112084e-03  8.0009786885944338e-03  9.6544186885877195e-03  1.1258716854508180e-02  1.2753780653749205e-02  1.4080618236349048e-02  1.5183618877737712e-02  1.6012733127255978e-02  1.6525468581725558e-02  1.6688623991636342e-02  1.6479694162427914e-02  1.5887890459243433e-02  1.4914736183588316e-02  1.3574212104833623e-02  1.1892444378678235e-02  9.9069443167385217e-03  7.6654263377172972e-03  5.2242463292766963e-03  2.6465170741149513e-03  0.0000000000000000e+00  0.0000000000000000e+00  -6.1994288069824660e-04  -1.1836155836509026e-03  -1.6386525768048838e-03  -1.9374876367079844e-03  -2.0394608061789906e-03  -1.9126563240097654e-03  -1.5353935013381376e-03  -8.9731091778851241e-04  -2.7666455897181330e-15  1.1428385457052915e-03  2.5057235154317243e-03  4.0521964752361864e-03  5.7360703733550684e-03  7.5030770418014897e-03  9.2928515828969369e-03  1.1041178452523143e-02  1.2682413742632782e-02  1.4151991129306632e-02  1.5388915462001808e-02  1.6338148160831369e-02  1.6952792456297508e-02  1.7195993902840004e-02  1.7042482240780105e-02  1.6479694162428195e-02  1.5508432339585026e-02  1.4143033584908697e-02  1.2411037578451613e-02  1.0352366488632300e-02  8.0180443485344324e-03  5.4685025423402197e-03  2.7715336061254069e-03  0.0000000000000000e+00  0.0000000000000000e+00  -8.1171593112467060e-04  -1.5614793045563838e-03  -2.1916132685715788e-03  -2.6496196744343493e-03  -2.8904576247784372e-03  -2.8785342125366912e-03  -2.5893218479072686e-03  -2.0105378092397461e-03  -1.1428385457108886e-03  -2.8194793351406317e-15  1.3914249112311785e-03  2.9929602867583395e-03  4.7555415072582921e-03  6.6212799435598855e-03  8.5255915249646090e-03  1.0399608381609929e-02  1.2172781660263220e-02  1.3775576017350803e-02  1.5142152510322958e-02  1.6212936785997008e-02  1.6936973597443103e-02  1.7273976612363351e-02  1.7195993902840361e-02  1.6688623991636967e-02  1.5751734319679779e-02  1.4399652843730248e-02  1.2660823454721465e-02  1.0576936269257537e-02  8.2015638259022861e-03  5.5983530750128990e-03  2.8388400969369199e-03  0.0000000000000000e+00  0.0000000000000000e+00  -1.0248947455669894e-03  -1.9824895624855733e-03  -2.8100723601243603e-03  -3.4504443148297894e-03  -3.8543502784343497e-03  -3.9826056979577820e-03  -3.8078273314851550e-03  -3.3156992465817638e-03  -2.5057235154372598e-03  -1.3914249112367291e-03  -2.7150038752479408e-15  1.6285774990177136e-03  3.4429621695234521e-03  5.3823004609095514e-03  7.3784818613344613e-03  9.3586920923319616e-03  1.1248170919005445e-02  1.2973069083729952e-02  1.4463294828718640e-02  1.5655240630963407e-02  1.6494285127801510e-02  1.6936973597443537e-02  1.6952792456298292e-02  1.6525468581726585e-02  1.5653742278750937e-02  1.4351582695096711e-02  1.2647835689945581e-02  1.0585315773774985e-02  8.2193749437240900e-03  5.6160012440322604e-03  2.8495179326848375e-03  0.0000000000000000e+00  0.0000000000000000e+00  -1.2544434273671586e-03  -2.4366622726331964e-03  -3.4792612340448499e-03  -4.3206442223276045e-03  -4.9075752498166474e-03  -5.1974233691722419e-03  -5.1599923907239597e-03  -4.7788633487762956e-03  -4.0521964752415433e-03  -2.9929602867636786e-03  -1.6285774990228968e-03  -2.4508508560215053e-15  1.8397528227915242e-03  3.8275373461448764e-03  5.8924368525862898e-03  7.9584309971781932e-03  9.9472816376040656e-03  1.1781524562956804e-02  1.3387452389360234e-02  1.4697974024099576e-02  1.5655240630963914e-02  1.6212936785997938e-02  1.6338148160832629e-02  1.6012733127257463e-02  1.5234144528605937e-02  1.4015668791522936e-02  1.2386071758261598e-02  1.0388663260051372e-02  8.0798146664592362e-03  5.5269845907528672e-03  2.8063268094179316e-03  0.0000000000000000e+00  0.0000000000000000e+00  -1.4941620350586557e-03  -2.9116899317600912e-03  -4.1809395102324707e-03  -5.2362996059358161e-03  -6.0208605310978578e-03  -6.4887574221037924e-03  -6.6070833005919764e-03  -6.3572969748161906e-03  -5.7360703733601408e-03  -4.7555415072633080e-03  -3.4429621695282768e-03  -1.8397528227960306e-03  -2.0382238225902985e-15  2.0115469298096393e-03  4.1219034249059235e-03  6.2526092223094670e-03  8.3227140502567590e-03  1.0251875234433851e-02  1.1963448376690746e-02  1.3387452389360809e-02  1.4463294828719706e-02  1.5142152510324436e-02  1.5388915462003588e-02  1.5183618877739682e-02  1.4522307243132384e-02  1.3417296465563978e-02  1.1896822832790342e-02  1.0004091065459093e-02  7.7957567279477342e-03  5.3398999397934353e-03  2.7135668561451814e-03  0.0000000000000000e+00  0.0000000000000000e+00  -1.7369001681993945e-03  -3.3933661085218010e-03  -4.8940254799099085e-03  -6.1697174349697511e-03  -7.1602443651681488e-03  -7.8167927089194521e-03  -8.1039125064482354e-03  -8.0009786885990794e-03  -7.5030770418061830e-03  -6.6212799435644860e-03  -5.3823004609139229e-03  -3.8275373461488932e-03  -2.0115469298131921e-03  -1.5004644674125381e-15  2.1327983791085432e-03  4.3067312805352351e-03  6.4389264906728541e-03  8.4469300843645762e-03  1.0251875234434483e-02  1.1781524562957998e-02  1.2973069083731626e-02  1.3775576017352860e-02  1.4151991129308962e-02  1.4080618236351532e-02  1.3556018497339390e-02  1.2589294288078002e-02  1.1207746007417252e-02  9.4539141737801508e-03  7.3840427289962570e-03  5.0660216675068991e-03  2.5768871007528071e-03  0.0000000000000000e+00  0.0000000000000000e+00  -1.9748123253596913e-03  -3.8660932008416134e-03  -5.5953506751199537e-03  -7.0904246831833932e-03  -8.2882965848479519e-03  -9.1375652876309246e-03  -9.6004753565430770e-03  -9.6544186885919592e-03  -9.2928515829011800e-03  -8.5255915249687186e-03  -7.3784818613383037e-03  -5.8924368525897428e-03  -4.1219034249088829e-03  -2.1327983791109258e-03  -8.7200887612756410e-16  2.1955098359922182e-03  4.3697434890889453e-03  6.4389264906735194e-03  8.3227140502580461e-03  9.9472816376059009e-03  1.1248170919007743e-02  1.2172781660265872e-02  1.2682413742635673e-02  1.2753780653752206e-02  1.2379936054395378e-02  1.1570577509052648e-02  1.0351715342754687e-02  8.7647189343966377e-03  6.8647766448324508e-03  4.7188280900073432e-03  2.4030477396834301e-03  0.0000000000000000e+00  0.0000000000000000e+00  -2.1996454436486335e-03  -4.3134543823331803e-03  -6.2605102029355524e-03  -7.9662882227077257e-03  -9.3654965371156897e-03  -1.0404584283334475e-02  -1.1043799407670175e-02  -1.1258716854511958e-02  -1.1041178452526881e-02  -1.0399608381613488e-02  -9.3586920923352194e-03  -7.9584309971810294e-03  -6.2526092223117854e-03  -4.3067312805369577e-03  -2.1955098359932885e-03  -1.9351429196372122e-16  2.1955098359929034e-03  4.3067312805365786e-03  6.2526092223114185e-03  7.9584309971806703e-03  9.3586920923348742e-03  1.0399608381613166e-02  1.1041178452526577e-02  1.1258716854511679e-02  1.1043799407669927e-02  1.0404584283334257e-02  9.3654965371155040e-03  7.9662882227075748e-03  6.2605102029354379e-03  4.3134543823331040e-03  2.1996454436485954e-03  0.0000000000000000e+00  0.0000000000000000e+00  -2.4030477396834687e-03  -4.7188280900074204e-03  -6.8647766448325653e-03  -8.7647189343967903e-03  -1.0351715342754876e-02  -1.1570577509052870e-02  -1.2379936054395628e-02  -1.2753780653752484e-02  -1.2682413742635981e-02  -1.2172781660266200e-02  -1.1248170919008087e-02  -9.9472816376062600e-03  -8.3227140502584156e-03  -6.4389264906738984e-03  -4.3697434890893304e-03  -2.1955098359926059e-03  4.8849893738915434e-16  2.1327983791105485e-03  4.1219034249085152e-03  5.8924368525893854e-03  7.3784818613379611e-03  8.5255915249683994e-03  9.2928515829008851e-03  9.6544186885916851e-03  9.6004753565428307e-03  9.1375652876307112e-03  8.2882965848477680e-03  7.0904246831832458e-03  5.5953506751198409e-03  3.8660932008415397e-03  1.9748123253596544e-03  0.0000000000000000e+00  0.0000000000000000e+00  -2.5768871007528452e-03  -5.0660216675069755e-03  -7.3840427289963715e-03  -9.4539141737803034e-03  -1.1207746007417443e-02  -1.2589294288078222e-02  -1.3556018497339641e-02  -1.4080618236351813e-02  -1.4151991129309271e-02  -1.3775576017353190e-02  -1.2973069083731973e-02  -1.1781524562958355e-02  -1.0251875234434849e-02  -8.4469300843649543e-03  -6.4389264906732375e-03  -4.3067312805356193e-03  -2.1327983791089218e-03  1.1295015658517805e-15  2.0115469298128304e-03  3.8275373461485436e-03  5.3823004609135899e-03  6.6212799435641755e-03  7.5030770418058959e-03  8.0009786885988157e-03  8.1039125064479994e-03  7.8167927089192440e-03  7.1602443651679728e-03  6.1697174349696071e-03  4.8940254799097992e-03  3.3933661085217290e-03  1.7369001681993587e-03  0.0000000000000000e+00  0.0000000000000000e+00  -2.7135668561452187e-03  -5.3398999397935108e-03  -7.7957567279478487e-03  -1.0004091065459247e-02  -1.1896822832790531e-02  -1.3417296465564197e-02  -1.4522307243132630e-02  -1.5183618877739963e-02  -1.5388915462003896e-02  -1.5142152510324761e-02  -1.4463294828720051e-02  -1.3387452389361164e-02  -1.1963448376691114e-02  -1.0251875234434226e-02  -8.3227140502571371e-03  -6.2526092223098434e-03  -4.1219034249062921e-03  -2.0115469298100002e-03  1.6870485262733449e-15  1.8397528227956919e-03  3.4429621695279558e-03  4.7555415072630088e-03  5.7360703733598650e-03  6.3572969748159373e-03  6.6070833005917482e-03  6.4887574221035912e-03  6.0208605310976878e-03  5.2362996059356782e-03  4.1809395102323666e-03  2.9116899317600219e-03  1.4941620350586216e-03  0.0000000000000000e+00  0.0000000000000000e+00  -2.8063268094179680e-03  -5.5269845907529418e-03  -8.0798146664593472e-03  -1.0388663260051518e-02  -1.2386071758261778e-02  -1.4015668791523148e-02  -1.5234144528606178e-02  -1.6012733127257730e-02  -1.6338148160832920e-02  -1.6212936785998253e-02  -1.5655240630964247e-02  -1.4697974024099926e-02  -1.3387452389360593e-02  -1.1781524562957169e-02  -9.9472816376044298e-03  -7.9584309971785540e-03  -5.8924368525866445e-03  -3.8275373461452234e-03  -1.8397528227918607e-03  2.1267598997422167e-15  1.6285774990225899e-03  2.9929602867633919e-03  4.0521964752412787e-03  4.7788633487760544e-03  5.1599923907237437e-03  5.1974233691720502e-03  4.9075752498164852e-03  4.3206442223274726e-03  3.4792612340447506e-03  2.4366622726331305e-03  1.2544434273671257e-03  0.0000000000000000e+00  0.0000000000000000e+00  -2.8495179326848722e-03  -5.6160012440323315e-03  -8.2193749437241941e-03  -1.0585315773775123e-02  -1.2647835689945753e-02  -1.4351582695096914e-02  -1.5653742278751166e-02  -1.6525468581726842e-02  -1.6952792456298563e-02  -1.6936973597443838e-02  -1.6494285127801829e-02  -1.5655240630963740e-02  -1.4463294828718987e-02  -1.2973069083730301e-02  -1.1248170919005793e-02  -9.3586920923323050e-03  -7.3784818613347979e-03  -5.3823004609098819e-03  -3.4429621695237730e-03  -1.6285774990180215e-03  2.4233219481639773e-15  1.3914249112364566e-03  2.5057235154370091e-03  3.3156992465815365e-03  3.8078273314849495e-03  3.9826056979576016e-03  3.8543502784341961e-03  3.4504443148296645e-03  2.8100723601242666e-03  1.9824895624855113e-03  1.0248947455669586e-03  0.0000000000000000e+00  0.0000000000000000e+00  -2.8388400969369524e-03  -5.5983530750129649e-03  -8.2015638259023867e-03  -1.0576936269257669e-02  -1.2660823454721628e-02  -1.4399652843730439e-02  -1.5751734319679994e-02  -1.6688623991637209e-02  -1.7195993902840621e-02  -1.7273976612363635e-02  -1.6936973597443405e-02  -1.6212936785997327e-02  -1.5142152510323286e-02  -1.3775576017351130e-02  -1.2172781660263549e-02  -1.0399608381610255e-02  -8.5255915249649282e-03  -6.6212799435601977e-03  -4.7555415072585939e-03  -2.9929602867586297e-03  -1.3914249112314523e-03  2.5641873731802111e-15  1.1428385457106531e-03  2.0105378092395328e-03  2.5893218479070769e-03  2.8785342125365234e-03  2.8904576247782941e-03  2.6496196744342339e-03  2.1916132685714921e-03  1.5614793045563256e-03  8.1171593112464155e-04  0.0000000000000000e+00  0.0000000000000000e+00  -2.7715336061254368e-03  -5.4685025423402804e-03  -8.0180443485345261e-03  -1.0352366488632421e-02  -1.2411037578451769e-02  -1.4143033584908876e-02  -1.5508432339585227e-02  -1.6479694162428421e-02  -1.7042482240780352e-02  -1.7195993902840271e-02  -1.6952792456297786e-02  -1.6338148160831664e-02  -1.5388915462002110e-02  -1.4151991129306936e-02  -1.2682413742633092e-02  -1.1041178452523446e-02  -9.2928515828972335e-03  -7.5030770418017777e-03  -5.7360703733553512e-03  -4.0521964752364545e-03  -2.5057235154319775e-03  -1.1428385457055278e-03  2.5486706600765672e-15  8.9731091778831400e-04  1.5353935013379602e-03  1.9126563240096104e-03  2.0394608061788597e-03  1.9374876367078777e-03  1.6386525768048027e-03  1.1836155836508486e-03  6.1994288069821993e-04  0.0000000000000000e+00  0.0000000000000000e+00  -2.6465170741149795e-03  -5.2242463292767535e-03  -7.6654263377173831e-03  -9.9069443167386344e-03  -1.1892444378678375e-02  -1.3574212104833788e-02  -1.4914736183588503e-02  -1.5887890459243641e-02  -1.6479694162428143e-02  -1.6688623991636585e-02  -1.6525468581725815e-02  -1.6012733127256248e-02  -1.5183618877737993e-02  -1.4080618236349327e-02  -1.2753780653749484e-02  -1.1258716854508456e-02  -9.6544186885879901e-03  -8.0009786885946975e-03  -6.3572969748114626e-03  -4.7788633487713074e-03  -3.3156992465766134e-03  -2.0105378092345424e-03  -8.9731091778337134e-04  2.3889868996942517e-15  6.681067916240789