<?xml version="1.0"?>
<VTKFile type="UnstructuredGrid"  version="0.1"  >
<UnstructuredGrid>
<Piece  NumberOfPoints="1089" NumberOfCells="2048">
<Points>
<DataArray  type="Float64"  NumberOfComponents="3"  format="ascii">0 0 0  0.03125 0 0  0.0625 0 0  0.09375 0 0  0.125 0 0  0.15625 0 0  0.1875 0 0  0.21875 0 0  0.25 0 0  0.28125 0 0  0.3125 0 0  0.34375 0 0  0.375 0 0  0.40625 0 0  0.4375 0 0  0.46875 0 0  0.5 0 0  0.53125 0 0  0.5625 0 0  0.59375 0 0  0.625 0 0  0.65625 0 0  0.6875 0 0  0.71875 0 0  0.75 0 0  0.78125 0 0  0.8125 0 0  0.84375 0 0  0.875 0 0  0.90625 0 0  0.9375 0 0  0.96875 0 0  1 0 0  0 0.03125 0  0.03125 0.03125 0  0.0625 0.03125 0  0.09375 0.03125 0  0.125 0.03125 0  0.15625 0.03125 0  0.1875 0.03125 0  0.21875 0.03125 0  0.25 0.03125 0  0.28125 0.03125 0  0.3125 0.03125 0  0.34375 0.03125 0  0.375 0.03125 0  0.40625 0.03125 0  0.4375 0.03125 0  0.46875 0.03125 0  0.5 0.03125 0  0.53125 0.03125 0  0.5625 0.03125 0  0.59375 0.03125 0  0.625 0.03125 0  0.65625 0.03125 0  0.6875 0.03125 0  0.71875 0.03125 0  0.75 0.03125 0  0.78125 0.03125 0  0.8125 0.03125 0  0.84375 0.03125 0  0.875 0.03125 0  0.90625 0.03125 0  0.9375 0.03125 0  0.96875 0.03125 0  1 0.03125 0  0 0.0625 0  0.03125 0.0625 0  0.0625 0.0625 0  0.09375 0.0625 0  0.125 0.0625 0  0.15625 0.0625 0  0.1875 0.0625 0  0.21875 0.0625 0  0.25 0.0625 0  0.28125 0.0625 0  0.3125 0.0625 0  0.34375 0.0625 0  0.375 0.0625 0  0.40625 0.0625 0  0.4375 0.0625 0  0.46875 0.0625 0  0.5 0.0625 0  0.53125 0.0625 0  0.5625 0.0625 0  0.59375 0.0625 0  0.625 0.0625 0  0.65625 0.0625 0  0.6875 0.0625 0  0.71875 0.0625 0  0.75 0.0625 0  0.78125 0.0625 0  0.8125 0.0625 0  0.84375 0.0625 0  0.875 0.0625 0  0.90625 0.0625 0  0.9375 0.0625 0  0.96875 0.0625 0  1 0.0625 0  0 0.09375 0  0.03125 0.09375 0  0.0625 0.09375 0  0.09375 0.09375 0  0.125 0.09375 0  0.15625 0.09375 0  0.1875 0.09375 0  0.21875 0.09375 0  0.25 0.09375 0  0.28125 0.09375 0  0.3125 0.09375 0  0.34375 0.09375 0  0.375 0.09375 0  0.40625 0.09375 0  0.4375 0.09375 0  0.46875 0.09375 0  0.5 0.09375 0  0.53125 0.09375 0  0.5625 0.09375 0  0.59375 0.09375 0  0.625 0.09375 0  0.65625 0.09375 0  0.6875 0.09375 0  0.71875 0.09375 0  0.75 0.09375 0  0.78125 0.09375 0  0.8125 0.09375 0  0.84375 0.09375 0  0.875 0.09375 0  0.90625 0.09375 0  0.9375 0.09375 0  0.96875 0.09375 0  1 0.09375 0  0 0.125 0  0.03125 0.125 0  0.0625 0.125 0  0.09375 0.125 0  0.125 0.125 0  0.15625 0.125 0  0.1875 0.125 0  0.21875 0.125 0  0.25 0.125 0  0.28125 0.125 0  0.3125 0.125 0  0.34375 0.125 0  0.375 0.125 0  0.40625 0.125 0  0.4375 0.125 0  0.46875 0.125 0  0.5 0.125 0  0.53125 0.125 0  0.5625 0.125 0  0.59375 0.125 0  0.625 0.125 0  0.65625 0.125 0  0.6875 0.125 0  0.71875 0.125 0  0.75 0.125 0  0.78125 0.125 0  0.8125 0.125 0  0.84375 0.125 0  0.875 0.125 0  0.90625 0.125 0  0.9375 0.125 0  0.96875 0.125 0  1 0.125 0  0 0.15625 0  0.03125 0.15625 0  0.0625 0.15625 0  0.09375 0.15625 0  0.125 0.15625 0  0.15625 0.15625 0  0.1875 0.15625 0  0.21875 0.15625 0  0.25 0.15625 0  0.28125 0.15625 0  0.3125 0.15625 0  0.34375 0.15625 0  0.375 0.15625 0  0.40625 0.15625 0  0.4375 0.15625 0  0.46875 0.15625 0  0.5 0.15625 0  0.53125 0.15625 0  0.5625 0.15625 0  0.59375 0.15625 0  0.625 0.15625 0  0.65625 0.15625 0  0.6875 0.15625 0  0.71875 0.15625 0  0.75 0.15625 0  0.78125 0.15625 0  0.8125 0.15625 0  0.84375 0.15625 0  0.875 0.15625 0  0.90625 0.15625 0  0.9375 0.15625 0  0.96875 0.15625 0  1 0.15625 0  0 0.1875 0  0.03125 0.1875 0  0.0625 0.1875 0  0.09375 0.1875 0  0.125 0.1875 0  0.15625 0.1875 0  0.1875 0.1875 0  0.21875 0.1875 0  0.25 0.1875 0  0.28125 0.1875 0  0.3125 0.1875 0  0.34375 0.1875 0  0.375 0.1875 0  0.40625 0.1875 0  0.4375 0.1875 0  0.46875 0.1875 0  0.5 0.1875 0  0.53125 0.1875 0  0.5625 0.1875 0  0.59375 0.1875 0  0.625 0.1875 0  0.65625 0.1875 0  0.6875 0.1875 0  0.71875 0.1875 0  0.75 0.1875 0  0.78125 0.1875 0  0.8125 0.1875 0  0.84375 0.1875 0  0.875 0.1875 0  0.90625 0.1875 0  0.9375 0.1875 0  0.96875 0.1875 0  1 0.1875 0  0 0.21875 0  0.03125 0.21875 0  0.0625 0.21875 0  0.09375 0.21875 0  0.125 0.21875 0  0.15625 0.21875 0  0.1875 0.21875 0  0.21875 0.21875 0  0.25 0.21875 0  0.28125 0.21875 0  0.3125 0.21875 0  0.34375 0.21875 0  0.375 0.21875 0  0.40625 0.21875 0  0.4375 0.21875 0  0.46875 0.21875 0  0.5 0.21875 0  0.53125 0.21875 0  0.5625 0.21875 0  0.59375 0.21875 0  0.625 0.21875 0  0.65625 0.21875 0  0.6875 0.21875 0  0.71875 0.21875 0  0.75 0.21875 0  0.78125 0.21875 0  0.8125 0.21875 0  0.84375 0.21875 0  0.875 0.21875 0  0.90625 0.21875 0  0.9375 0.21875 0  0.96875 0.21875 0  1 0.21875 0  0 0.25 0  0.03125 0.25 0  0.0625 0.25 0  0.09375 0.25 0  0.125 0.25 0  0.15625 0.25 0  0.1875 0.25 0  0.21875 0.25 0  0.25 0.25 0  0.28125 0.25 0  0.3125 0.25 0  0.34375 0.25 0  0.375 0.25 0  0.40625 0.25 0  0.4375 0.25 0  0.46875 0.25 0  0.5 0.25 0  0.53125 0.25 0  0.5625 0.25 0  0.59375 0.25 0  0.625 0.25 0  0.65625 0.25 0  0.6875 0.25 0  0.71875 0.25 0  0.75 0.25 0  0.78125 0.25 0  0.8125 0.25 0  0.84375 0.25 0  0.875 0.25 0  0.90625 0.25 0  0.9375 0.25 0  0.96875 0.25 0  1 0.25 0  0 0.28125 0  0.03125 0.28125 0  0.0625 0.28125 0  0.09375 0.28125 0  0.125 0.28125 0  0.15625 0.28125 0  0.1875 0.28125 0  0.21875 0.28125 0  0.25 0.28125 0  0.28125 0.28125 0  0.3125 0.28125 0  0.34375 0.28125 0  0.375 0.28125 0  0.40625 0.28125 0  0.4375 0.28125 0  0.46875 0.28125 0  0.5 0.28125 0  0.53125 0.28125 0  0.5625 0.28125 0  0.59375 0.28125 0  0.625 0.28125 0  0.65625 0.28125 0  0.6875 0.28125 0  0.71875 0.28125 0  0.75 0.28125 0  0.78125 0.28125 0  0.8125 0.28125 0  0.84375 0.28125 0  0.875 0.28125 0  0.90625 0.28125 0  0.9375 0.28125 0  0.96875 0.28125 0  1 0.28125 0  0 0.3125 0  0.03125 0.3125 0  0.0625 0.3125 0  0.09375 0.3125 0  0.125 0.3125 0  0.15625 0.3125 0  0.1875 0.3125 0  0.21875 0.3125 0  0.25 0.3125 0  0.28125 0.3125 0  0.3125 0.3125 0  0.34375 0.3125 0  0.375 0.3125 0  0.40625 0.3125 0  0.4375 0.3125 0  0.46875 0.3125 0  0.5 0.3125 0  0.53125 0.3125 0  0.5625 0.3125 0  0.59375 0.3125 0  0.625 0.3125 0  0.65625 0.3125 0  0.6875 0.3125 0  0.71875 0.3125 0  0.75 0.3125 0  0.78125 0.3125 0  0.8125 0.3125 0  0.84375 0.3125 0  0.875 0.3125 0  0.90625 0.3125 0  0.9375 0.3125 0  0.96875 0.3125 0  1 0.3125 0  0 0.34375 0  0.03125 0.34375 0  0.0625 0.34375 0  0.09375 0.34375 0  0.125 0.34375 0  0.15625 0.34375 0  0.1875 0.34375 0  0.21875 0.34375 0  0.25 0.34375 0  0.28125 0.34375 0  0.3125 0.34375 0  0.34375 0.34375 0  0.375 0.34375 0  0.40625 0.34375 0  0.4375 0.34375 0  0.46875 0.34375 0  0.5 0.34375 0  0.53125 0.34375 0  0.5625 0.34375 0  0.59375 0.34375 0  0.625 0.34375 0  0.65625 0.34375 0  0.6875 0.34375 0  0.71875 0.34375 0  0.75 0.34375 0  0.78125 0.34375 0  0.8125 0.34375 0  0.84375 0.34375 0  0.875 0.34375 0  0.90625 0.34375 0  0.9375 0.34375 0  0.96875 0.34375 0  1 0.34375 0  0 0.375 0  0.03125 0.375 0  0.0625 0.375 0  0.09375 0.375 0  0.125 0.375 0  0.15625 0.375 0  0.1875 0.375 0  0.21875 0.375 0  0.25 0.375 0  0.28125 0.375 0  0.3125 0.375 0  0.34375 0.375 0  0.375 0.375 0  0.40625 0.375 0  0.4375 0.375 0  0.46875 0.375 0  0.5 0.375 0  0.53125 0.375 0  0.5625 0.375 0  0.59375 0.375 0  0.625 0.375 0  0.65625 0.375 0  0.6875 0.375 0  0.71875 0.375 0  0.75 0.375 0  0.78125 0.375 0  0.8125 0.375 0  0.84375 0.375 0  0.875 0.375 0  0.90625 0.375 0  0.9375 0.375 0  0.96875 0.375 0  1 0.375 0  0 0.40625 0  0.03125 0.40625 0  0.0625 0.40625 0  0.09375 0.40625 0  0.125 0.40625 0  0.15625 0.40625 0  0.1875 0.40625 0  0.21875 0.40625 0  0.25 0.40625 0  0.28125 0.40625 0  0.3125 0.40625 0  0.34375 0.40625 0  0.375 0.40625 0  0.40625 0.40625 0  0.4375 0.40625 0  0.46875 0.40625 0  0.5 0.40625 0  0.53125 0.40625 0  0.5625 0.40625 0  0.59375 0.40625 0  0.625 0.40625 0  0.65625 0.40625 0  0.6875 0.40625 0  0.71875 0.40625 0  0.75 0.40625 0  0.78125 0.40625 0  0.8125 0.40625 0  0.84375 0.40625 0  0.875 0.40625 0  0.90625 0.40625 0  0.9375 0.40625 0  0.96875 0.40625 0  1 0.40625 0  0 0.4375 0  0.03125 0.4375 0  0.0625 0.4375 0  0.09375 0.4375 0  0.125 0.4375 0  0.15625 0.4375 0  0.1875 0.4375 0  0.21875 0.4375 0  0.25 0.4375 0  0.28125 0.4375 0  0.3125 0.4375 0  0.34375 0.4375 0  0.375 0.4375 0  0.40625 0.4375 0  0.4375 0.4375 0  0.46875 0.4375 0  0.5 0.4375 0  0.53125 0.4375 0  0.5625 0.4375 0  0.59375 0.4375 0  0.625 0.4375 0  0.65625 0.4375 0  0.6875 0.4375 0  0.71875 0.4375 0  0.75 0.4375 0  0.78125 0.4375 0  0.8125 0.4375 0  0.84375 0.4375 0  0.875 0.4375 0  0.90625 0.4375 0  0.9375 0.4375 0  0.96875 0.4375 0  1 0.4375 0  0 0.46875 0  0.03125 0.46875 0  0.0625 0.46875 0  0.09375 0.46875 0  0.125 0.46875 0  0.15625 0.46875 0  0.1875 0.46875 0  0.21875 0.46875 0  0.25 0.46875 0  0.28125 0.46875 0  0.3125 0.46875 0  0.34375 0.46875 0  0.375 0.46875 0  0.40625 0.46875 0  0.4375 0.46875 0  0.46875 0.46875 0  0.5 0.46875 0  0.53125 0.46875 0  0.5625 0.46875 0  0.59375 0.46875 0  0.625 0.46875 0  0.65625 0.46875 0  0.6875 0.46875 0  0.71875 0.46875 0  0.75 0.46875 0  0.78125 0.46875 0  0.8125 0.46875 0  0.84375 0.46875 0  0.875 0.46875 0  0.90625 0.46875 0  0.9375 0.46875 0  0.96875 0.46875 0  1 0.46875 0  0 0.5 0  0.03125 0.5 0  0.0625 0.5 0  0.09375 0.5 0  0.125 0.5 0  0.15625 0.5 0  0.1875 0.5 0  0.21875 0.5 0  0.25 0.5 0  0.28125 0.5 0  0.3125 0.5 0  0.34375 0.5 0  0.375 0.5 0  0.40625 0.5 0  0.4375 0.5 0  0.46875 0.5 0  0.5 0.5 0  0.53125 0.5 0  0.5625 0.5 0  0.59375 0.5 0  0.625 0.5 0  0.65625 0.5 0  0.6875 0.5 0  0.71875 0.5 0  0.75 0.5 0  0.78125 0.5 0  0.8125 0.5 0  0.84375 0.5 0  0.875 0.5 0  0.90625 0.5 0  0.9375 0.5 0  0.96875 0.5 0  1 0.5 0  0 0.53125 0  0.03125 0.53125 0  0.0625 0.53125 0  0.09375 0.53125 0  0.125 0.53125 0  0.15625 0.53125 0  0.1875 0.53125 0  0.21875 0.53125 0  0.25 0.53125 0  0.28125 0.53125 0  0.3125 0.53125 0  0.34375 0.53125 0  0.375 0.53125 0  0.40625 0.53125 0  0.4375 0.53125 0  0.46875 0.53125 0  0.5 0.53125 0  0.53125 0.53125 0  0.5625 0.53125 0  0.59375 0.53125 0  0.625 0.53125 0  0.65625 0.53125 0  0.6875 0.53125 0  0.71875 0.53125 0  0.75 0.53125 0  0.78125 0.531
[...]
<PointData  Scalars="phi"> 
<DataArray  type="Float64"  Name="phi"  format="ascii">0.0000000000000000e+00  0.0000000000000000e+00  0.0000000000000000e+00  0.0000000000000000e+00  0.0000000000000000e+00  0.0000000000000000e+00  0.0000000000000000e+00  0.0000000000000000e+00  0.0000000000000000e+00  0.0000000000000000e+00  0.0000000000000000e+00  0.0000000000000000e+00  0.0000000000000000e+00  0.0000000000000000e+00  0.0000000000000000e+00  0.0000000000000000e+00  0.0000000000000000e+00  0.0000000000000000e+00  0.0000000000000000e+00  0.0000000000000000e+00  0.0000000000000000e+00  0.0000000000000000e+00  0.0000000000000000e+00  0.0000000000000000e+00  0.0000000000000000e+00  0.0000000000000000e+00  0.0000000000000000e+00  0.0000000000000000e+00  0.0000000000000000e+00  0.0000000000000000e+00  0.0000000000000000e+00  0.0000000000000000e+00  0.0000000000000000e+00  0.0000000000000000e+00  -3.4846970570157963e-16  3.1825860588707855e-05  1.2540218736957042e-04  3.0753464114645579e-04  6.0063865899650072e-04  1.0216248482224533e-03  1.5809976079990190e-03  2.2822086399412124e-03  3.1212946515689578e-03  4.0868164827745097e-03  5.1601046764923296e-03  6.3158043253953508e-03  7.5227002020207424e-03  8.7447921227373250e-03  9.9425806083443535e-03  1.1074514555797426e-02  1.2098546143844299e-02  1.2973733809847539e-02  1.3661832027182502e-02  1.4128806868972041e-02  1.4346218964147787e-02  1.4292420351081771e-02  1.3953518752062383e-02  1.3324071711956702e-02  1.2407483631401825e-02  1.1216090808342615e-02  9.7709332797601429e-03  8.1012284594109991e-03  6.2435837995329698e-03  4.2410258812062380e-03  2.1420230035738789e-03  0.0000000000000000e+00  0.0000000000000000e+00  -3.1825860590082535e-05  -1.3565221854128097e-15  1.5525484109224898e-04  4.8756428241509241e-04  1.0418371191358393e-03  1.8520315614374157e-03  2.9393522135621845e-03  4.3109566759377610e-03  5.9592287817817231e-03  7.8616523315862274e-03  9.9812952038224340e-03  1.2267889579935309e-02  1.4659470533621020e-02  1.7084513241590462e-02  1.9464489391717667e-02  2.1716746737892305e-02  2.3757602813721086e-02  2.5505535067898117e-02  2.6884345464382377e-02  2.7826178072584550e-02  2.8274273353850160e-02  2.8185352556703420e-02  2.7531539533439345e-02  2.6301744923999407e-02  2.4502458477999096e-02  2.2157918765816319e-02  1.9309655291846459e-02  1.6015426151102519e-02  1.2347605875701474e-02  8.3911151429537645e-03  4.2410258812062476e-03  0.0000000000000000e+00  0.0000000000000000e+00  -1.2540218737158883e-04  -1.5525484109623358e-04  -2.9264387605610372e-15  4.2082787585454788e-04  1.1747475258162970e-03  2.3129843380552944e-03  3.8677714773334010e-03  5.8504125249087954e-03  8.2501889677425271e-03  1.1034162334466299e-02  1.4147885487927472e-02  1.7517001844257467e-02  2.1049676417251431e-02  2.4639769890511184e-02  2.8170637635906007e-02  3.1519410842300671e-02  3.4561597642998682e-02  3.7175829078293282e-02  3.9248568410364663e-02  4.0678602976642463e-02  4.1381145416831029e-02  4.1291385470109285e-02  4.0367354099448124e-02  3.8591987728963592e-02  3.5974310970256593e-02  3.2549690330873945e-02  2.8379147925803396e-02  2.3547761919342401e-02  1.8162217597426616e-02  1.2347605875701521e-02  6.2435837995330080e-03  0.0000000000000000e+00  0.0000000000000000e+00  -3.0753464114906953e-04  -4.8756428242025305e-04  -4.2082787586212786e-04  -4.9077464824283694e-15  8.6519108725314348e-04  2.2435234564552407e-03  4.1787006554349186e-03  6.6867779596933817e-03  9.7547045041738063e-03  1.3340046470394617e-02  1.7371910315790526e-02  2.1753038087835769e-02  2.6363000975725533e-02  3.1062374177526757e-02  3.5697737553037776e-02  4.0107313875668855e-02  4.4127031048763511e-02  4.7596777397426390e-02  5.0366610758855457e-02  5.2302682907639203e-02  5.3292650852766812e-02  5.3250365366812435e-02  5.2119654057449574e-02  4.9877050361959704e-02  4.6533359757318038e-02  4.2133998707456724e-02  3.6758088643509497e-02  3.0516334471846790e-02  2.3547761919342533e-02  1.6015426151102671e-02  8.1012284594110927e-03  0.0000000000000000e+00  0.0000000000000000e+00  -6.0063865899964838e-04  -1.0418371191420546e-03  -1.1747475258254256e-03  -8.6519108726496030e-04  -7.1099374467773653e-15  1.5074800019284182e-03  3.7129489604723186e-03  6.6379552988743047e-03  1.0268075218787391e-02  1.4552548974227029e-02  1.9405397418506630e-02  2.4707984513960050e-02  3.0312935025095002e-02  3.6049263571365717e-02  4.1728523644438291e-02  4.7151744932651063e-02  5.2116895897729665e-02  5.6426587231650033e-02  5.9895721414963007e-02  6.2358794514295823e-02  6.3676568574670717e-02  6.3741856026396149e-02  6.2484190562654758e-02  5.9873200688223230e-02  5.5920550973452401e-02  5.0680370032572683e-02  4.4248141140780219e-02  3.6758088643509775e-02  2.8379147925803764e-02  1.9309655291846785e-02  9.7709332797603285e-03  0.0000000000000000e+00  0.0000000000000000e+00  -1.0216248482260628e-03  -1.8520315614445420e-03  -2.3129843380657587e-03  -2.2435234564687810e-03  -1.5074800019447029e-03  -9.3172830461251421e-15  2.3471850946081936e-03  5.5619554091693880e-03  9.6296245331254776e-03  1.4492480772948586e-02  2.0051075563954433e-02  2.6167218869251579e-02  3.2668574867533835e-02  3.9354688709063730e-02  4.6004219022692430e-02  5.2383103355013547e-02  5.8253346652858633e-02  6.3382097698272077e-02  6.7550666050962799e-02  7.0563133033527348e-02  7.2254224582989163e-02  7.2496140848348045e-02  7.1204076201827005e-02  6.8340212352999280e-02  6.3916024595806059e-02  5.7992804603054615e-02  5.0680370032573169e-02  4.2133998707457432e-02  3.2549690330874667e-02  2.2157918765816891e-02  1.1216090808342931e-02  0.0000000000000000e+00  0.0000000000000000e+00  -1.5809976080030086e-03  -2.9393522135700602e-03  -3.8677714773449616e-03  -4.1787006554498719e-03  -3.7129489604902886e-03  -2.3471850946287375e-03  -1.1310706208730625e-14  3.3637079201007825e-03  7.7302052389991664e-03  1.3036361928119007e-02  1.9171087905049372e-02  2.5978722261641555e-02  3.3264253746676201e-02  4.0800179652889526e-02  4.8334746151822171e-02  5.5601258810803134e-02  6.2328109614835939e-02  6.8249137944472904e-02  7.3113928750325047e-02  7.6697652172908012e-02  7.8810065054011724e-02  7.9303325556898452e-02  7.8078316275760506e-02  7.5089227063617453e-02  7.0346214170232374e-02  6.3916024595806781e-02  5.5920550973453567e-02  4.6533359757319342e-02  3.5974310970257800e-02  2.4502458478000005e-02  1.2407483631402309e-02  0.0000000000000000e+00  0.0000000000000000e+00  -2.2822086399454941e-03  -4.3109566759462125e-03  -5.8504125249211961e-03  -6.6867779597094123e-03  -6.6379552988935515e-03  -5.5619554091913643e-03  -3.3637079201249468e-03  -1.2882756773137551e-14  4.5176578028861174e-03  1.0122360047687603e-02  1.6693365656002886e-02  2.4059837857588445e-02  3.2006630018805486e-02  4.0281902878637588e-02  4.8606287191344535e-02  5.6683245154703701e-02  6.4210236631230017e-02  7.0890263879677451e-02  7.6443352558090816e-02  8.0617527761661617e-02  8.3198861789416434e-02  8.4020204510937974e-02  8.2968256316893918e-02  7.9988705793830633e-02  7.5089227063618522e-02  6.8340212353001029e-02  5.9873200688225305e-02  4.9877050361961786e-02  3.8591987728965403e-02  2.6301744924000739e-02  1.3324071711957406e-02  0.0000000000000000e+00  0.0000000000000000e+00  -3.1212946515734403e-03  -5.9592287817905702e-03  -8.2501889677555010e-03  -9.7547045041905638e-03  -1.0268075218807489e-02  -9.6296245331483968e-03  -7.7302052390243190e-03  -4.5176578029128781e-03  -1.3858640151981118e-14  5.7537856735364410e-03  1.2615407427171049e-02  2.0401308418127838e-02  2.8878953092901394e-02  3.7775121741375789e-02  4.6785901094633139e-02  5.5587992423991872e-02  6.3850906697384358e-02  7.1249580925931311e-02  7.7476932260928555e-02  8.2255867365232591e-02  8.5350284055698861e-02  8.6574639454584934e-02  8.5801712472410488e-02  8.2968256316895320e-02  7.8078316275762935e-02  7.1204076201830030e-02  6.2484190562657957e-02  5.2119654057452586e-02  4.0367354099450671e-02  2.7531539533441188e-02  1.3953518752063344e-02  0.0000000000000000e+00  0.0000000000000000e+00  -4.0868164827791015e-03  -7.8616523315952862e-03  -1.1034162334479576e-02  -1.3340046470411751e-02  -1.4552548974247553e-02  -1.4492480772971945e-02  -1.3036361928144589e-02  -1.0122360047714746e-02  -5.7537856735644620e-03  -1.4107673290491508e-14  7.0053096874272257e-03  1.5068429592180846e-02  2.3942336958332373e-02  3.3335584690191516e-02  4.2923017826479185e-02  5.2357915144060574e-02  6.1285093210253591e-02  6.9354471963394518e-02  7.6234581858183090e-02  8.1625493507204855e-02  8.5270671558397348e-02  8.6967294480004315e-02  8.6574639454586738e-02  8.4020204510941138e-02  7.9303325556902532e-02  7.2496140848352569e-02  6.3741856026400673e-02  5.3250365366816571e-02  4.1291385470112699e-02  2.8185352556705852e-02  1.4292420351083033e-02  0.0000000000000000e+00  0.0000000000000000e+00  -5.1601046764969422e-03  -9.9812952038315257e-03  -1.4147885487940791e-02  -1.7371910315807697e-02  -1.9405397418527162e-02  -2.0051075563977748e-02  -1.9171087905074845e-02  -1.6693365656029815e-02  -1.2615407427198744e-02  -7.0053096874549761e-03  -1.3563191193705557e-14  8.1992671865456571e-03  1.7333986474690862e-02  2.7097783805680873e-02  3.7147750177270428e-02  4.7117295886787820e-02  5.6630034901608770e-02  6.5314168250011032e-02  7.2816814973789640e-02  7.8817739981120849e-02  8.3041950063125661e-02  8.5270671558399541e-02  8.5350284055702830e-02  8.3198861789421624e-02  7.8810065054017719e-02  7.2254224582995394e-02  6.3676568574676740e-02  5.3292650852772190e-02  4.1381145416835415e-02  2.8274273353853244e-02  1.4346218964149381e-02  0.0000000000000000e+00  0.0000000000000000e+00  -6.3158043253998966e-03  -1.2267889579944267e-02  -1.7517001844270571e-02  -2.1753038087852641e-02  -2.4707984513980187e-02  -2.6167218869274401e-02  -2.5978722261666400e-02  -2.4059837857614612e-02  -2.0401308418154608e-02  -1.5068429592207512e-02  -8.1992671865715253e-03  -1.2214920520587405e-14  9.2624391133191812e-03  1.9270146769117598e-02  2.9666086048844256e-02  4.0067526107351537e-02  5.0080571056476481e-02  5.9315221983110539e-02  6.7400394477213382e-02  7.3998314718284913e-02  7.8817739981123430e-02  8.1625493507209546e-02  8.2255867365238974e-02  8.0617527761669139e-02  7.6697652172916103e-02  7.0563133033535480e-02  6.2358794514303470e-02  5.2302682907645948e-02  4.0678602976647889e-02  2.7826178072588345e-02  1.4128806868973996e-02  0.0000000000000000e+00  0.0000000000000000e+00  -7.5227002020251434e-03  -1.4659470533629690e-02  -2.1049676417264098e-02  -2.6363000975741804e-02  -3.0312935025114385e-02  -3.2668574867555734e-02  -3.3264253746699952e-02  -3.2006630018830390e-02  -2.8878953092926714e-02  -2.3942336958357395e-02  -1.7333986474714902e-02  -9.2624391133416042e-03  -1.0120265909552765e-14  1.0127343511729843e-02  2.0752144071787569e-02  3.1479386959354198e-02  4.1901521819716715e-02  5.1614057722537611e-02  6.0231123328465079e-02  6.7400394477216269e-02  7.2816814973795066e-02  7.6234581858190514e-02  7.7476932260937562e-02  7.6443352558100808e-02  7.3113928750335427e-02  6.7550666050972957e-02  5.9895721414972403e-02  5.0366610758863624e-02  3.9248568410371193e-02  2.6884345464386922e-02  1.3661832027184833e-02  0.0000000000000000e+00  0.0000000000000000e+00  -8.7447921227415126e-03  -1.7084513241598702e-02  -2.4639769890523206e-02  -3.1062374177542169e-02  -3.6049263571384035e-02  -3.9354688709084346e-02  -4.0800179652911786e-02  -4.0281902878660784e-02  -3.7775121741399201e-02  -3.3335584690214436e-02  -2.7097783805702609e-02  -1.9270146769137540e-02  -1.0127343511747437e-02  -7.3987325199415120e-15  1.0737788381833490e-02  2.1682666428031502e-02  3.2417407605765891e-02  4.2526891577762294e-02  5.1614057722540796e-02  5.9315221983116555e-02  6.5314168250019483e-02  6.9354471963404898e-02  7.1249580925943079e-02  7.0890263879689996e-02  6.8249137944485616e-02  6.3382097698284318e-02  5.6426587231661232e-02  4.7596777397436028e-02  3.7175829078300950e-02  2.5505535067903425e-02  1.2973733809850251e-02  0.0000000000000000e+00  0.0000000000000000e+00  -9.9425806083482671e-03  -1.9464489391725355e-02  -2.8170637635917217e-02  -3.5697737553052111e-02  -4.1728523644455270e-02  -4.6004219022711471e-02  -4.8334746151842592e-02  -4.8606287191365671e-02  -4.6785901094654261e-02  -4.2923017826499606e-02  -3.7147750177289496e-02  -2.9666086048861350e-02  -2.0752144071802162e-02  -1.0737788381845160e-02  -4.2213586356824127e-15  1.1053511371326130e-02  2.1999903519701026e-02  3.2417407605769250e-02  4.1901521819723217e-02  5.0080571056485730e-02  5.6630034901620344e-02  6.1285093210266962e-02  6.3850906697398929e-02  6.4210236631245171e-02  6.2328109614850989e-02  5.8253346652872934e-02  5.2116895897742627e-02  4.4127031048774600e-02  3.4561597643007438e-02  2.3757602813727130e-02  1.2098546143847382e-02  0.0000000000000000e+00  0.0000000000000000e+00  -1.1074514555801020e-02  -2.1716746737899358e-02  -3.1519410842310941e-02  -4.0107313875681949e-02  -4.7151744932666495e-02  -5.2383103355030755e-02  -5.5601258810821473e-02  -5.6683245154722506e-02  -5.5587992424010441e-02  -5.2357915144078240e-02  -4.7117295886803939e-02  -4.0067526107365511e-02  -3.1479386959365550e-02  -2.1682666428039829e-02  -1.1053511371331171e-02  -7.9664803418931871e-16  1.1053511371329587e-02  2.1682666428038275e-02  3.1479386959364031e-02  4.0067526107364033e-02  4.7117295886802510e-02  5.2357915144076887e-02  5.5587992424009192e-02  5.6683245154721368e-02  5.5601258810820439e-02  5.2383103355029853e-02  4.7151744932665732e-02  4.0107313875681332e-02  3.1519410842310476e-02  2.1716746737899053e-02  1.1074514555800868e-02  0.0000000000000000e+00  0.0000000000000000e+00  -1.2098546143847538e-02  -2.3757602813727439e-02  -3.4561597643007896e-02  -4.4127031048775217e-02  -5.2116895897743404e-02  -5.8253346652873850e-02  -6.2328109614852030e-02  -6.4210236631246337e-02  -6.3850906697400206e-02  -6.1285093210268329e-02  -5.6630034901621787e-02  -5.0080571056487208e-02  -4.1901521819724723e-02  -3.2417407605770804e-02  -2.1999903519702609e-02  -1.1053511371327724e-02  2.6441744782000779e-15  1.0737788381843610e-02  2.0752144071800645e-02  2.9666086048859876e-02  3.7147750177288080e-02  4.2923017826498280e-02  4.6785901094653040e-02  4.8606287191364547e-02  4.8334746151841586e-02  4.6004219022710589e-02  4.1728523644454528e-02  3.5697737553051515e-02  2.8170637635916762e-02  1.9464489391725053e-02  9.9425806083481161e-03  0.0000000000000000e+00  0.0000000000000000e+00  -1.2973733809850401e-02  -2.5505535067903724e-02  -3.7175829078301387e-02  -4.7596777397436646e-02  -5.6426587231662009e-02  -6.3382097698285234e-02  -6.8249137944486643e-02  -7.0890263879691162e-02  -7.1249580925944356e-02  -6.9354471963406272e-02  -6.5314168250020913e-02  -5.9315221983118033e-02  -5.1614057722542309e-02  -4.2526891577763855e-02  -3.2417407605767459e-02  -2.1682666428033081e-02  -1.0737788381835048e-02  5.8694622615150958e-15  1.0127343511745945e-02  1.9270146769136094e-02  2.7097783805701235e-02  3.3335584690213138e-02  3.7775121741397993e-02  4.0281902878659695e-02  4.0800179652910815e-02  3.9354688709083499e-02  3.6049263571383321e-02  3.1062374177541589e-02  2.4639769890522769e-02  1.7084513241598404e-02  8.7447921227413669e-03  0.0000000000000000e+00  0.0000000000000000e+00  -1.3661832027184979e-02  -2.6884345464387220e-02  -3.9248568410371651e-02  -5.0366610758864248e-02  -5.9895721414973180e-02  -6.7550666050973832e-02  -7.3113928750336427e-02  -7.6443352558101946e-02  -7.7476932260938824e-02  -7.6234581858191902e-02  -7.2816814973796468e-02  -6.7400394477217740e-02  -6.0231123328466613e-02  -5.1614057722539172e-02  -4.1901521819718283e-02  -3.1479386959355746e-02  -2.0752144071789089e-02  -1.0127343511731331e-02  8.6708714588882522e-15  9.2624391133402043e-03  1.7333986474713577e-02  2.3942336958356153e-02  2.8878953092925569e-02  3.2006630018829335e-02  3.3264253746699016e-02  3.2668574867554909e-02  3.0312935025113695e-02  2.6363000975741249e-02  2.1049676417263671e-02  1.4659470533629402e-02  7.5227002020250011e-03  0.0000000000000000e+00  0.0000000000000000e+00  -1.4128806868974142e-02  -2.7826178072588640e-02  -4.0678602976648333e-02  -5.2302682907646544e-02  -6.2358794514304219e-02  -7.0563133033536340e-02  -7.6697652172917088e-02  -8.0617527761670221e-02  -8.2255867365240154e-02  -8.1625493507210864e-02  -7.8817739981124790e-02  -7.3998314718286343e-02  -6.7400394477214881e-02  -5.9315221983112051e-02  -5.0080571056477979e-02  -4.0067526107353021e-02  -2.9666086048845717e-02  -1.9270146769119027e-02  -9.2624391133205707e-03  1.0875040024016482e-14  8.1992671865702520e-03  1.5068429592206320e-02  2.0401308418153519e-02  2.4059837857613613e-02  2.5978722261665501e-02  2.6167218869273610e-02  2.4707984513979521e-02  2.1753038087852099e-02  1.7517001844270165e-02  1.2267889579943996e-02  6.3158043253997605e-03  0.0000000000000000e+00  0.0000000000000000e+00  -1.4346218964149521e-02  -2.8274273353853532e-02  -4.1381145416835845e-02  -5.3292650852772766e-02  -6.3676568574677433e-02  -7.2254224582996227e-02  -7.8810065054018649e-02  -8.3198861789422679e-02  -8.5350284055703968e-02  -8.5270671558400790e-02  -8.3041950063126979e-02  -7.8817739981122251e-02  -7.2816814973791097e-02  -6.5314168250012475e-02  -5.6630034901610213e-02  -4.7117295886789243e-02  -3.7147750177271815e-02  -2.7097783805682233e-02  -1.7333986474692184e-02  -8.1992671865469303e-03  1.2356992519858105e-14  7.0053096874538477e-03  1.2615407427197703e-02  1.6693365656028872e-02  1.9171087905073995e-02  2.0051075563977006e-02  1.9405397418526524e-02  1.7371910315807176e-02  1.4147885487940402e-02  9.9812952038312690e-03  5.1601046764968139e-03  0.0000000000000000e+00  0.0000000000000000e+00  -1.4292420351083168e-02  -2.8185352556706122e-02  -4.1291385470113108e-02  -5.3250365366817119e-02  -6.3741856026401353e-02  -7.2496140848353346e-02  -7.9303325556903420e-02  -8.4020204510942137e-02  -8.6574639454587848e-02  -8.6967294480005494e-02  -8.5270671558398611e-02  -8.1625493507206187e-02  -7.6234581858184464e-02  -6.9354471963395878e-02  -6.1285093210254951e-02  -5.2357915144061906e-02  -4.2923017826480489e-02  -3.3335584690192800e-02  -2.3942336958333615e-02  -1.5068429592182037e-02  -7.0053096874283551e-03  1.3051173782262930e-14  5.7537856735634853e-03  1.0122360047713861e-02  1.3036361928143794e-02  1.4492480772971252e-02  1.4552548974246959e-02  1.3340046470411268e-02  1.1034162334479212e-02  7.8616523315950433e-03  4.0868164827789818e-03  0.0000000000000000e+00  0.0000000000000000e+00  -1.3953518752063469e-02  -2.7531539533441441e-02  -4.0367354099451060e-02  -5.2119654057453099e-02  -6.2484190562658595e-02  -7.1204076201830765e-02  -7.8078316275763782e-02  -8.2968256316896263e-02  -8.5801712472411529e-02  -8.6574639454586058e-02  -8.5350284055700054e-02  -8.2255867365233853e-02  -7.7476932260929859e-02  -7.1249580925932574e-02  -6.3850906697385620e-02  -5.5587992423993107e-02  -4.6785901094634354e-02  -3.7775121741376982e-02  -2.8878953092902549e-02  -2.0401308418128941e-02  -1.2615407427172095e-02  -5.7537856735374177e-03  1.2954838401490602e-14  4.5176578029120576e-03  7.7302052390235835e-03  9.6296245331477532e-03  1.0268075218806943e-02  9.7547045041901179e-03  8.2501889677551610e-03  5.9592287817903447e-03  3.1212946515733284e-03  0.0000000000000000e+00  0.0000000000000000e+00  -1.3324071711957524e-02  -2.6301744924000975e-02  -3.8591987728965743e-02  -4.9877050361962244e-02  -5.9873200688225874e-02  -6.8340212353001709e-02  -7.5089227063619285e-02  -7.9988705793831508e-02  -8.2968256316894876e-02  -8.4020204510939001e-02  -8.3198861789417530e-02  -8.0617527761662783e-02  -7.6443352558092023e-02  -7.0890263879678631e-02  -6.4210236631231182e-02  -5.6683245154704846e-02  -4.8606287191345660e-02  -4.0281902878638670e-02  -3.2006630018806534e-02  -2.4059837857589444e-02  -1.6693365656003833e-02  -1.0122360047688492e-02  -4.5176578028869423e-03  1.2133786377315206e-14  3.363707920124275