<?xml version="1.0"?>
<VTKFile type="UnstructuredGrid"  version="0.1"  >
<UnstructuredGrid>
<Piece  NumberOfPoints="1089" NumberOfCells="2048">
<Points>
<DataArray  type="Float64"  NumberOfComponents="3"  format="ascii">0 0 0  0.03125 0 0  0.0625 0 0  0.09375 0 0  0.125 0 0  0.15625 0 0  0.1875 0 0  0.21875 0 0  0.25 0 0  0.28125 0 0  0.3125 0 0  0.34375 0 0  0.375 0 0  0.40625 0 0  0.4375 0 0  0.46875 0 0  0.5 0 0  0.53125 0 0  0.5625 0 0  0.59375 0 0  0.625 0 0  0.65625 0 0  0.6875 0 0  0.71875 0 0  0.75 0 0  0.78125 0 0  0.8125 0 0  0.84375 0 0  0.875 0 0  0.90625 0 0  0.9375 0 0  0.96875 0 0  1 0 0  0 0.03125 0  0.03125 0.03125 0  0.0625 0.03125 0  0.09375 0.03125 0  0.125 0.03125 0  0.15625 0.03125 0  0.1875 0.03125 0  0.21875 0.03125 0  0.25 0.03125 0  0.28125 0.03125 0  0.3125 0.03125 0  0.34375 0.03125 0  0.375 0.03125 0  0.40625 0.03125 0  0.4375 0.03125 0  0.46875 0.03125 0  0.5 0.03125 0  0.53125 0.03125 0  0.5625 0.03125 0  0.59375 0.03125 0  0.625 0.03125 0  0.65625 0.03125 0  0.6875 0.03125 0  0.71875 0.03125 0  0.75 0.03125 0  0.78125 0.03125 0  0.8125 0.03125 0  0.84375 0.03125 0  0.875 0.03125 0  0.90625 0.03125 0  0.9375 0.03125 0  0.96875 0.03125 0  1 0.03125 0  0 0.0625 0  0.03125 0.0625 0  0.0625 0.0625 0  0.09375 0.0625 0  0.125 0.0625 0  0.15625 0.0625 0  0.1875 0.0625 0  0.21875 0.0625 0  0.25 0.0625 0  0.28125 0.0625 0  0.3125 0.0625 0  0.34375 0.0625 0  0.375 0.0625 0  0.40625 0.0625 0  0.4375 0.0625 0  0.46875 0.0625 0  0.5 0.0625 0  0.53125 0.0625 0  0.5625 0.0625 0  0.59375 0.0625 0  0.625 0.0625 0  0.65625 0.0625 0  0.6875 0.0625 0  0.71875 0.0625 0  0.75 0.0625 0  0.78125 0.0625 0  0.8125 0.0625 0  0.84375 0.0625 0  0.875 0.0625 0  0.90625 0.0625 0  0.9375 0.0625 0  0.96875 0.0625 0  1 0.0625 0  0 0.09375 0  0.03125 0.09375 0  0.0625 0.09375 0  0.09375 0.09375 0  0.125 0.09375 0  0.15625 0.09375 0  0.1875 0.09375 0  0.21875 0.09375 0  0.25 0.09375 0  0.28125 0.09375 0  0.3125 0.09375 0  0.34375 0.09375 0  0.375 0.09375 0  0.40625 0.09375 0  0.4375 0.09375 0  0.46875 0.09375 0  0.5 0.09375 0  0.53125 0.09375 0  0.5625 0.09375 0  0.59375 0.09375 0  0.625 0.09375 0  0.65625 0.09375 0  0.6875 0.09375 0  0.71875 0.09375 0  0.75 0.09375 0  0.78125 0.09375 0  0.8125 0.09375 0  0.84375 0.09375 0  0.875 0.09375 0  0.90625 0.09375 0  0.9375 0.09375 0  0.96875 0.09375 0  1 0.09375 0  0 0.125 0  0.03125 0.125 0  0.0625 0.125 0  0.09375 0.125 0  0.125 0.125 0  0.15625 0.125 0  0.1875 0.125 0  0.21875 0.125 0  0.25 0.125 0  0.28125 0.125 0  0.3125 0.125 0  0.34375 0.125 0  0.375 0.125 0  0.40625 0.125 0  0.4375 0.125 0  0.46875 0.125 0  0.5 0.125 0  0.53125 0.125 0  0.5625 0.125 0  0.59375 0.125 0  0.625 0.125 0  0.65625 0.125 0  0.6875 0.125 0  0.71875 0.125 0  0.75 0.125 0  0.78125 0.125 0  0.8125 0.125 0  0.84375 0.125 0  0.875 0.125 0  0.90625 0.125 0  0.9375 0.125 0  0.96875 0.125 0  1 0.125 0  0 0.15625 0  0.03125 0.15625 0  0.0625 0.15625 0  0.09375 0.15625 0  0.125 0.15625 0  0.15625 0.15625 0  0.1875 0.15625 0  0.21875 0.15625 0  0.25 0.15625 0  0.28125 0.15625 0  0.3125 0.15625 0  0.34375 0.15625 0  0.375 0.15625 0  0.40625 0.15625 0  0.4375 0.15625 0  0.46875 0.15625 0  0.5 0.15625 0  0.53125 0.15625 0  0.5625 0.15625 0  0.59375 0.15625 0  0.625 0.15625 0  0.65625 0.15625 0  0.6875 0.15625 0  0.71875 0.15625 0  0.75 0.15625 0  0.78125 0.15625 0  0.8125 0.15625 0  0.84375 0.15625 0  0.875 0.15625 0  0.90625 0.15625 0  0.9375 0.15625 0  0.96875 0.15625 0  1 0.15625 0  0 0.1875 0  0.03125 0.1875 0  0.0625 0.1875 0  0.09375 0.1875 0  0.125 0.1875 0  0.15625 0.1875 0  0.1875 0.1875 0  0.21875 0.1875 0  0.25 0.1875 0  0.28125 0.1875 0  0.3125 0.1875 0  0.34375 0.1875 0  0.375 0.1875 0  0.40625 0.1875 0  0.4375 0.1875 0  0.46875 0.1875 0  0.5 0.1875 0  0.53125 0.1875 0  0.5625 0.1875 0  0.59375 0.1875 0  0.625 0.1875 0  0.65625 0.1875 0  0.6875 0.1875 0  0.71875 0.1875 0  0.75 0.1875 0  0.78125 0.1875 0  0.8125 0.1875 0  0.84375 0.1875 0  0.875 0.1875 0  0.90625 0.1875 0  0.9375 0.1875 0  0.96875 0.1875 0  1 0.1875 0  0 0.21875 0  0.03125 0.21875 0  0.0625 0.21875 0  0.09375 0.21875 0  0.125 0.21875 0  0.15625 0.21875 0  0.1875 0.21875 0  0.21875 0.21875 0  0.25 0.21875 0  0.28125 0.21875 0  0.3125 0.21875 0  0.34375 0.21875 0  0.375 0.21875 0  0.40625 0.21875 0  0.4375 0.21875 0  0.46875 0.21875 0  0.5 0.21875 0  0.53125 0.21875 0  0.5625 0.21875 0  0.59375 0.21875 0  0.625 0.21875 0  0.65625 0.21875 0  0.6875 0.21875 0  0.71875 0.21875 0  0.75 0.21875 0  0.78125 0.21875 0  0.8125 0.21875 0  0.84375 0.21875 0  0.875 0.21875 0  0.90625 0.21875 0  0.9375 0.21875 0  0.96875 0.21875 0  1 0.21875 0  0 0.25 0  0.03125 0.25 0  0.0625 0.25 0  0.09375 0.25 0  0.125 0.25 0  0.15625 0.25 0  0.1875 0.25 0  0.21875 0.25 0  0.25 0.25 0  0.28125 0.25 0  0.3125 0.25 0  0.34375 0.25 0  0.375 0.25 0  0.40625 0.25 0  0.4375 0.25 0  0.46875 0.25 0  0.5 0.25 0  0.53125 0.25 0  0.5625 0.25 0  0.59375 0.25 0  0.625 0.25 0  0.65625 0.25 0  0.6875 0.25 0  0.71875 0.25 0  0.75 0.25 0  0.78125 0.25 0  0.8125 0.25 0  0.84375 0.25 0  0.875 0.25 0  0.90625 0.25 0  0.9375 0.25 0  0.96875 0.25 0  1 0.25 0  0 0.28125 0  0.03125 0.28125 0  0.0625 0.28125 0  0.09375 0.28125 0  0.125 0.28125 0  0.15625 0.28125 0  0.1875 0.28125 0  0.21875 0.28125 0  0.25 0.28125 0  0.28125 0.28125 0  0.3125 0.28125 0  0.34375 0.28125 0  0.375 0.28125 0  0.40625 0.28125 0  0.4375 0.28125 0  0.46875 0.28125 0  0.5 0.28125 0  0.53125 0.28125 0  0.5625 0.28125 0  0.59375 0.28125 0  0.625 0.28125 0  0.65625 0.28125 0  0.6875 0.28125 0  0.71875 0.28125 0  0.75 0.28125 0  0.78125 0.28125 0  0.8125 0.28125 0  0.84375 0.28125 0  0.875 0.28125 0  0.90625 0.28125 0  0.9375 0.28125 0  0.96875 0.28125 0  1 0.28125 0  0 0.3125 0  0.03125 0.3125 0  0.0625 0.3125 0  0.09375 0.3125 0  0.125 0.3125 0  0.15625 0.3125 0  0.1875 0.3125 0  0.21875 0.3125 0  0.25 0.3125 0  0.28125 0.3125 0  0.3125 0.3125 0  0.34375 0.3125 0  0.375 0.3125 0  0.40625 0.3125 0  0.4375 0.3125 0  0.46875 0.3125 0  0.5 0.3125 0  0.53125 0.3125 0  0.5625 0.3125 0  0.59375 0.3125 0  0.625 0.3125 0  0.65625 0.3125 0  0.6875 0.3125 0  0.71875 0.3125 0  0.75 0.3125 0  0.78125 0.3125 0  0.8125 0.3125 0  0.84375 0.3125 0  0.875 0.3125 0  0.90625 0.3125 0  0.9375 0.3125 0  0.96875 0.3125 0  1 0.3125 0  0 0.34375 0  0.03125 0.34375 0  0.0625 0.34375 0  0.09375 0.34375 0  0.125 0.34375 0  0.15625 0.34375 0  0.1875 0.34375 0  0.21875 0.34375 0  0.25 0.34375 0  0.28125 0.34375 0  0.3125 0.34375 0  0.34375 0.34375 0  0.375 0.34375 0  0.40625 0.34375 0  0.4375 0.34375 0  0.46875 0.34375 0  0.5 0.34375 0  0.53125 0.34375 0  0.5625 0.34375 0  0.59375 0.34375 0  0.625 0.34375 0  0.65625 0.34375 0  0.6875 0.34375 0  0.71875 0.34375 0  0.75 0.34375 0  0.78125 0.34375 0  0.8125 0.34375 0  0.84375 0.34375 0  0.875 0.34375 0  0.90625 0.34375 0  0.9375 0.34375 0  0.96875 0.34375 0  1 0.34375 0  0 0.375 0  0.03125 0.375 0  0.0625 0.375 0  0.09375 0.375 0  0.125 0.375 0  0.15625 0.375 0  0.1875 0.375 0  0.21875 0.375 0  0.25 0.375 0  0.28125 0.375 0  0.3125 0.375 0  0.34375 0.375 0  0.375 0.375 0  0.40625 0.375 0  0.4375 0.375 0  0.46875 0.375 0  0.5 0.375 0  0.53125 0.375 0  0.5625 0.375 0  0.59375 0.375 0  0.625 0.375 0  0.65625 0.375 0  0.6875 0.375 0  0.71875 0.375 0  0.75 0.375 0  0.78125 0.375 0  0.8125 0.375 0  0.84375 0.375 0  0.875 0.375 0  0.90625 0.375 0  0.9375 0.375 0  0.96875 0.375 0  1 0.375 0  0 0.40625 0  0.03125 0.40625 0  0.0625 0.40625 0  0.09375 0.40625 0  0.125 0.40625 0  0.15625 0.40625 0  0.1875 0.40625 0  0.21875 0.40625 0  0.25 0.40625 0  0.28125 0.40625 0  0.3125 0.40625 0  0.34375 0.40625 0  0.375 0.40625 0  0.40625 0.40625 0  0.4375 0.40625 0  0.46875 0.40625 0  0.5 0.40625 0  0.53125 0.40625 0  0.5625 0.40625 0  0.59375 0.40625 0  0.625 0.40625 0  0.65625 0.40625 0  0.6875 0.40625 0  0.71875 0.40625 0  0.75 0.40625 0  0.78125 0.40625 0  0.8125 0.40625 0  0.84375 0.40625 0  0.875 0.40625 0  0.90625 0.40625 0  0.9375 0.40625 0  0.96875 0.40625 0  1 0.40625 0  0 0.4375 0  0.03125 0.4375 0  0.0625 0.4375 0  0.09375 0.4375 0  0.125 0.4375 0  0.15625 0.4375 0  0.1875 0.4375 0  0.21875 0.4375 0  0.25 0.4375 0  0.28125 0.4375 0  0.3125 0.4375 0  0.34375 0.4375 0  0.375 0.4375 0  0.40625 0.4375 0  0.4375 0.4375 0  0.46875 0.4375 0  0.5 0.4375 0  0.53125 0.4375 0  0.5625 0.4375 0  0.59375 0.4375 0  0.625 0.4375 0  0.65625 0.4375 0  0.6875 0.4375 0  0.71875 0.4375 0  0.75 0.4375 0  0.78125 0.4375 0  0.8125 0.4375 0  0.84375 0.4375 0  0.875 0.4375 0  0.90625 0.4375 0  0.9375 0.4375 0  0.96875 0.4375 0  1 0.4375 0  0 0.46875 0  0.03125 0.46875 0  0.0625 0.46875 0  0.09375 0.46875 0  0.125 0.46875 0  0.15625 0.46875 0  0.1875 0.46875 0  0.21875 0.46875 0  0.25 0.46875 0  0.28125 0.46875 0  0.3125 0.46875 0  0.34375 0.46875 0  0.375 0.46875 0  0.40625 0.46875 0  0.4375 0.46875 0  0.46875 0.46875 0  0.5 0.46875 0  0.53125 0.46875 0  0.5625 0.46875 0  0.59375 0.46875 0  0.625 0.46875 0  0.65625 0.46875 0  0.6875 0.46875 0  0.71875 0.46875 0  0.75 0.46875 0  0.78125 0.46875 0  0.8125 0.46875 0  0.84375 0.46875 0  0.875 0.46875 0  0.90625 0.46875 0  0.9375 0.46875 0  0.96875 0.46875 0  1 0.46875 0  0 0.5 0  0.03125 0.5 0  0.0625 0.5 0  0.09375 0.5 0  0.125 0.5 0  0.15625 0.5 0  0.1875 0.5 0  0.21875 0.5 0  0.25 0.5 0  0.28125 0.5 0  0.3125 0.5 0  0.34375 0.5 0  0.375 0.5 0  0.40625 0.5 0  0.4375 0.5 0  0.46875 0.5 0  0.5 0.5 0  0.53125 0.5 0  0.5625 0.5 0  0.59375 0.5 0  0.625 0.5 0  0.65625 0.5 0  0.6875 0.5 0  0.71875 0.5 0  0.75 0.5 0  0.78125 0.5 0  0.8125 0.5 0  0.84375 0.5 0  0.875 0.5 0  0.90625 0.5 0  0.9375 0.5 0  0.96875 0.5 0  1 0.5 0  0 0.53125 0  0.03125 0.53125 0  0.0625 0.53125 0  0.09375 0.53125 0  0.125 0.53125 0  0.15625 0.53125 0  0.1875 0.53125 0  0.21875 0.53125 0  0.25 0.53125 0  0.28125 0.53125 0  0.3125 0.53125 0  0.34375 0.53125 0  0.375 0.53125 0  0.40625 0.53125 0  0.4375 0.53125 0  0.46875 0.53125 0  0.5 0.53125 0  0.53125 0.53125 0  0.5625 0.53125 0  0.59375 0.53125 0  0.625 0.53125 0  0.65625 0.53125 0  0.6875 0.53125 0  0.71875 0.53125 0  0.75 0.53125 0  0.78125 0.531
[...]
<PointData  Scalars="phi"> 
<DataArray  type="Float64"  Name="phi"  format="ascii">0.0000000000000000e+00  0.0000000000000000e+00  0.0000000000000000e+00  0.0000000000000000e+00  0.0000000000000000e+00  0.0000000000000000e+00  0.0000000000000000e+00  0.0000000000000000e+00  0.0000000000000000e+00  0.0000000000000000e+00  0.0000000000000000e+00  0.0000000000000000e+00  0.0000000000000000e+00  0.0000000000000000e+00  0.0000000000000000e+00  0.0000000000000000e+00  0.0000000000000000e+00  0.0000000000000000e+00  0.0000000000000000e+00  0.0000000000000000e+00  0.0000000000000000e+00  0.0000000000000000e+00  0.0000000000000000e+00  0.0000000000000000e+00  0.0000000000000000e+00  0.0000000000000000e+00  0.0000000000000000e+00  0.0000000000000000e+00  0.0000000000000000e+00  0.0000000000000000e+00  0.0000000000000000e+00  0.0000000000000000e+00  0.0000000000000000e+00  0.0000000000000000e+00  5.2252600226968017e-03  1.0433388908616791e-02  1.5556694760546223e-02  2.0538743956312604e-02  2.5327576117449645e-02  2.9874718776358319e-02  3.4134967999378346e-02  3.8066463389588558e-02  4.1630882023415146e-02  4.4793677377375177e-02  4.7524327580464411e-02  4.9796573335290674e-02  5.1588633335896313e-02  5.2883388950241556e-02  5.3668532270541303e-02  5.3936673175175351e-02  5.3685402151253891e-02  5.2917306463840991e-02  5.1639937903555297e-02  4.9865730828932309e-02  4.7611869542205233e-02  4.4900104164227281e-02  4.1756514026046389e-02  3.8211216999784171e-02  3.4298021777616455e-02  3.0054017020345408e-02  2.5519084434442799e-02  2.0735306611000464e-02  1.5746198737275896e-02  1.0595575372876372e-02  5.3254954439142009e-03  0.0000000000000000e+00  0.0000000000000000e+00  1.0433388908616791e-02  2.0823042085184665e-02  3.1037297316266643e-02  4.0967248658470824e-02  5.0510702965027007e-02  5.9571640880989221e-02  6.8060253284470670e-02  7.5893264148450393e-02  8.2994386914200538e-02  8.9294831436850949e-02  9.4733813370428716e-02  9.9259035709556270e-02  1.0282712196992895e-01  1.0540398630154377e-01  1.0696512961424529e-01  1.0749585347203616e-01  1.0699138552953588e-01  1.0545691186448591e-01  1.0290751281308703e-01  9.9367999884014263e-02  9.4872652010452641e-02  8.9464849750822389e-02  8.3196605958334446e-02  7.6127990686081143e-02  6.8326446236839325e-02  5.9865984405123071e-02  5.0826250217255189e-02  4.1291420935069517e-02  3.1348877956310341e-02  2.1087529959590203e-02  1.0595575372876370e-02  0.0000000000000000e+00  0.0000000000000000e+00  1.5556694760546219e-02  3.1037297316266643e-02  4.6248136135281913e-02  6.1031351767531619e-02  7.5236809925393652e-02  8.8722561621423904e-02  1.0135543618758991e-01  1.1301176072688474e-01  1.2357815067400754e-01  1.3295231895016035e-01  1.4104386226750468e-01  1.4777499294760690e-01  1.5308119199940368e-01  1.5691176466417689e-01  1.5923028378309387e-01  1.6001490960552239e-01  1.5925857729900322e-01  1.5696904559890321e-01  1.5316880183052639e-01  1.4789481998427978e-01  1.4119816962415782e-01  1.3314347412511171e-01  1.2380821698696898e-01  1.1328189462187344e-01  1.0166501282824821e-01  8.9067921794870358e-02  7.5609480487221700e-02  6.1415535535016205e-02  4.6617194315246975e-02  3.1348877956310334e-02  1.5746198737275893e-02  0.0000000000000000e+00  0.0000000000000000e+00  2.0538743956312600e-02  4.0967248658470824e-02  6.1031351767531633e-02  8.0526522913226886e-02  9.9256865211281936e-02  1.1703638348536474e-01  1.3369016099863809e-01  1.4905552762554861e-01  1.6298322271570870e-01  1.7533852876180142e-01  1.8600234585363457e-01  1.9487217827998254e-01  2.0186300828587236e-01  2.0690803602452795e-01  2.0995926854836289e-01  2.1098794410026961e-01  2.0998478097868761e-01  2.0696004287841052e-01  2.0194341487548340e-01  1.9498368614038020e-01  1.8614823702872901e-01  1.7552232940349105e-01  1.6320819987472360e-01  1.4932395610673438e-01  1.3400227650527186e-01  1.1738891371817292e-01  9.9641003244587273e-02  8.0925182204479237e-02  6.1415535535016219e-02  4.1291420935069524e-02  2.0735306611000464e-02  0.0000000000000000e+00  0.0000000000000000e+00  2.5327576117449634e-02  5.0510702965027035e-02  7.5236809925393666e-02  9.9256865211281922e-02  1.2233145090553213e-01  1.4423264040990494e-01  1.6474569904663597e-01  1.8367069386274903e-01  2.0082403515599950e-01  2.1603994091364714e-01  2.2917180239405932e-01  2.4009342546439488e-01  2.4870012304766054e-01  2.5490963662518507e-01  2.5866286799199689e-01  2.5992440582178333e-01  2.5868283481749982e-01  2.5495081819505838e-01  2.4876494692533246e-01  2.4018535152729381e-01  2.2929507426304613e-01  2.1619920135453974e-01  2.0102375638050046e-01  1.8391435745868212e-01  1.6503464247711219e-01  1.4456446915497870e-01  1.2269790142734452e-01  9.9641003244587342e-02  7.5609480487221714e-02  5.0826250217255203e-02  2.5519084434442809e-02  0.0000000000000000e+00  0.0000000000000000e+00  2.9874718776358299e-02  5.9571640880989235e-02  8.8722561621423987e-02  1.1703638348536480e-01  1.4423264040990494e-01  1.7004385928609694e-01  1.9421771821043085e-01  2.1651906842185725e-01  2.3673184191657476e-01  2.5466084014694562e-01  2.7013338562111772e-01  2.8300081279461464e-01  2.9313977385666085e-01  3.0045333665954810e-01  3.0487185484813062e-01  3.0635359351796615e-01  3.0488509708948530e-01  3.0048128933589757e-01  2.9318529854665604e-01  2.8306800360570078e-01  2.7022729931536904e-01  2.5478708164820113e-01  2.3689595587200490e-01  2.1672567289555456e-01  1.9446930215446429e-01  1.7033915368894734e-01  1.4456446915497878e-01  1.1738891371817300e-01  8.9067921794870414e-02  5.9865984405123085e-02  3.0054017020345422e-02  0.0000000000000000e+00  0.0000000000000000e+00  3.4134967999378298e-02  6.8060253284470629e-02  1.0135543618758994e-01  1.3369016099863820e-01  1.6474569904663597e-01  1.9421771821043085e-01  2.2181884414436376e-01  2.4728105976158427e-01  2.7035795722354011e-01  2.9082683604086151e-01  3.0849062915492426e-01  3.2317963353493784e-01  3.3475302062039120e-01  3.4310010318911488e-01  3.4814133782745232e-01  3.4982904543029492e-01  3.4814783565275370e-01  3.4311472473508769e-01  3.3477893950041981e-01  3.2322140352485912e-01  3.0855390450270598e-01  2.9091794473592641e-01  2.7048327960885454e-01  2.4744615213339782e-01  2.2202723563327265e-01  1.9446930215446429e-01  1.6503464247711225e-01  1.3400227650527194e-01  1.0166501282824832e-01  6.8326446236839394e-02  3.4298021777616476e-02  0.0000000000000000e+00  0.0000000000000000e+00  3.8066463389588502e-02  7.5893264148450351e-02  1.1301176072688468e-01  1.4905552762554861e-01  1.8367069386274898e-01  2.1651906842185703e-01  2.4728105976158399e-01  2.7565841845469402e-01  3.0137680768874170e-01  3.2418819073866895e-01  3.4387301525319897e-01  3.6024216983242363e-01  3.7313868743897538e-01  3.8243917146621781e-01  3.8805492289400090e-01  3.8993275028906776e-01  3.8805544806076464e-01  3.8244193212158395e-01  3.7314702578840159e-01  3.6026089233131792e-01  3.4390811403293248e-01  3.2424642102779844e-01  3.0146507670032041e-01  2.7578293030022238e-01  2.4744615213339788e-01  2.1672567289555472e-01  1.8391435745868226e-01  1.4932395610673449e-01  1.1328189462187352e-01  7.6127990686081226e-02  3.8211216999784220e-02  0.0000000000000000e+00  0.0000000000000000e+00  4.1630882023415028e-02  8.2994386914200413e-02  1.2357815067400751e-01  1.6298322271570867e-01  2.0082403515599936e-01  2.3673184191657465e-01  2.7035795722354006e-01  3.0137680768874170e-01  3.2948879323821406e-01  3.5442294052910467e-01  3.7593932564460725e-01  3.9383123978217227e-01  4.0792707134436673e-01  4.1809187942597625e-01  4.2422863647678477e-01  4.2627912140560920e-01  4.2422444823289462e-01  4.1808521937243748e-01  4.0792129659407811e-01  3.9383118662560218e-01  3.7595104219290587e-01  3.5445328313726226e-01  3.2954484623201630e-01  3.0146507670032041e-01  2.7048327960885471e-01  2.3689595587200524e-01  2.0102375638050063e-01  1.6320819987472371e-01  1.2380821698696912e-01  8.3196605958334544e-02  4.1756514026046437e-02  0.0000000000000000e+00  0.0000000000000000e+00  4.4793677377375121e-02  8.9294831436850852e-02  1.3295231895016030e-01  1.7533852876180145e-01  2.1603994091364709e-01  2.5466084014694551e-01  2.9082683604086135e-01  3.2418819073866878e-01  3.5442294052910461e-01  3.8123978924850777e-01  4.0438074684110031e-01  4.2362348470659994e-01  4.3878337995113481e-01  4.4971522269815878e-01  4.5631456368804246e-01  4.5851868309952515e-01  4.5630716557616235e-01  4.4970207064154422e-01  4.3876769191808074e-01  4.2360990276711463e-01  4.0437509014135392e-01  3.8124868264246176e-01  3.5445328313726249e-01  3.2424642102779860e-01  2.9091794473592675e-01  2.5478708164820135e-01  2.1619920135453996e-01  1.7552232940349122e-01  1.3314347412511188e-01  8.9464849750822514e-02  4.4900104164227336e-02  0.0000000000000000e+00  0.0000000000000000e+00  4.7524327580464355e-02  9.4733813370428646e-02  1.4104386226750468e-01  1.8600234585363462e-01  2.2917180239405943e-01  2.7013338562111783e-01  3.0849062915492415e-01  3.4387301525319869e-01  3.7593932564460719e-01  4.0438074684110054e-01  4.2892369975330169e-01  4.4933236307954172e-01  4.6541086128042564e-01  4.7700509052348217e-01  4.8400415939920238e-01  4.8634142516487822e-01  4.8399511053779110e-01  4.7698849047404046e-01  4.6538964283134354e-01  4.4931076127226899e-01  4.2890703321599166e-01  4.0437509014135392e-01  3.7595104219290615e-01  3.4390811403293253e-01  3.0855390450270614e-01  2.7022729931536921e-01  2.2929507426304629e-01  1.8614823702872918e-01  1.4119816962415796e-01  9.4872652010452738e-02  4.7611869542205275e-02  0.0000000000000000e+00  0.0000000000000000e+00  4.9796573335290625e-02  9.9259035709556201e-02  1.4777499294760693e-01  1.9487217827998260e-01  2.4009342546439499e-01  2.8300081279461475e-01  3.2317963353493795e-01  3.6024216983242363e-01  3.9383123978217233e-01  4.2362348470660027e-01  4.4933236307954205e-01  4.7071081849193652e-01  4.8755359126399278e-01  4.9969914644165625e-01  5.0703119470045210e-01  5.0947978689526352e-01  5.0702196746874140e-01  4.9968197653918345e-01  4.8753099514893383e-01  4.7068643282408384e-01  4.4931076127226921e-01  4.2360990276711474e-01  3.9383118662560246e-01  3.6026089233131792e-01  3.2322140352485917e-01  2.8306800360570084e-01  2.4018535152729381e-01  1.9498368614038022e-01  1.4789481998427989e-01  9.9367999884014346e-02  4.9865730828932371e-02  0.0000000000000000e+00  0.0000000000000000e+00  5.1588633335896271e-02  1.0282712196992898e-01  1.5308119199940368e-01  2.0186300828587236e-01  2.4870012304766059e-01  2.9313977385666101e-01  3.3475302062039147e-01  3.7313868743897544e-01  4.0792707134436695e-01  4.3878337995113503e-01  4.6541086128042586e-01  4.8755359126399289e-01  5.0499888749806598e-01  5.1757932150997465e-01  5.2517430595382486e-01  5.2771123761966976e-01  5.2516618180597341e-01  5.1756408837895274e-01  5.0497853466380227e-01  4.8753099514893372e-01  4.6538964283134365e-01  4.3876769191808074e-01  4.0792129659407811e-01  3.7314702578840120e-01  3.3477893950041981e-01  2.9318529854665609e-01  2.4876494692533235e-01  2.0194341487548337e-01  1.5316880183052647e-01  1.0290751281308712e-01  5.1639937903555345e-02  0.0000000000000000e+00  0.0000000000000000e+00  5.2883388950241528e-02  1.0540398630154371e-01  1.5691176466417678e-01  2.0690803602452798e-01  2.5490963662518529e-01  3.0045333665954826e-01  3.4310010318911516e-01  3.8243917146621803e-01  4.1809187942597659e-01  4.4971522269815922e-01  4.7700509052348261e-01  4.9969914644165681e-01  5.1757932150997477e-01  5.3047389204650652e-01  5.3825911839620766e-01  5.4086042591784400e-01  5.3825311421886779e-01  5.3046258557069537e-01  5.1756408837895329e-01  4.9968197653918367e-01  4.7698849047404068e-01  4.4970207064154410e-01  4.1808521937243748e-01  3.8244193212158384e-01  3.4311472473508781e-01  3.0048128933589763e-01  2.5495081819505855e-01  2.0696004287841063e-01  1.5696904559890335e-01  1.0545691186448602e-01  5.2917306463841046e-02  0.0000000000000000e+00  0.0000000000000000e+00  5.3668532270541247e-02  1.0696512961424523e-01  1.5923028378309381e-01  2.0995926854836278e-01  2.5866286799199700e-01  3.0487185484813067e-01  3.4814133782745244e-01  3.8805492289400112e-01  4.2422863647678488e-01  4.5631456368804313e-01  4.8400415939920316e-01  5.0703119470045277e-01  5.2517430595382519e-01  5.3825911839620799e-01  5.4615992107401568e-01  5.4880087479056672e-01  5.4615673970499135e-01  5.3825311421886812e-01  5.2516618180597396e-01  5.0702196746874140e-01  4.8399511053779087e-01  4.5630716557616202e-01  4.2422444823289429e-01  3.8805544806076453e-01  3.4814783565275359e-01  3.0488509708948519e-01  2.5868283481749987e-01  2.0998478097868772e-01  1.5925857729900339e-01  1.0699138552953599e-01  5.3685402151253891e-02  0.0000000000000000e+00  0.0000000000000000e+00  5.3936673175175351e-02  1.0749585347203613e-01  1.6001490960552237e-01  2.1098794410026966e-01  2.5992440582178350e-01  3.0635359351796637e-01  3.4982904543029525e-01  3.8993275028906815e-01  4.2627912140560964e-01  4.5851868309952559e-01  4.8634142516487855e-01  5.0947978689526385e-01  5.2771123761967009e-01  5.4086042591784411e-01  5.4880087479056716e-01  5.5145620511886795e-01  5.4880087479056705e-01  5.4086042591784433e-01  5.2771123761966998e-01  5.0947978689526308e-01  4.8634142516487755e-01  4.5851868309952470e-01  4.2627912140560897e-01  3.8993275028906771e-01  3.4982904543029492e-01  3.0635359351796609e-01  2.5992440582178333e-01  2.1098794410026966e-01  1.6001490960552245e-01  1.0749585347203622e-01  5.3936673175175379e-02  0.0000000000000000e+00  0.0000000000000000e+00  5.3685402151253919e-02  1.0699138552953594e-01  1.5925857729900336e-01  2.0998478097868772e-01  2.5868283481749998e-01  3.0488509708948552e-01  3.4814783565275398e-01  3.8805544806076508e-01  4.2422444823289529e-01  4.5630716557616269e-01  4.8399511053779143e-01  5.0702196746874151e-01  5.2516618180597363e-01  5.3825311421886779e-01  5.4615673970499112e-01  5.4880087479056661e-01  5.4615992107401545e-01  5.3825911839620755e-01  5.2517430595382431e-01  5.0703119470045099e-01  4.8400415939920127e-01  4.5631456368804224e-01  4.2422863647678444e-01  3.8805492289400068e-01  3.4814133782745216e-01  3.0487185484813045e-01  2.5866286799199678e-01  2.0995926854836283e-01  1.5923028378309392e-01  1.0696512961424534e-01  5.3668532270541330e-02  0.0000000000000000e+00  0.0000000000000000e+00  5.2917306463841018e-02  1.0545691186448600e-01  1.5696904559890340e-01  2.0696004287841069e-01  2.5495081819505871e-01  3.0048128933589802e-01  3.4311472473508836e-01  3.8244193212158462e-01  4.1808521937243859e-01  4.4970207064154488e-01  4.7698849047404102e-01  4.9968197653918367e-01  5.1756408837895274e-01  5.3046258557069514e-01  5.3825311421886757e-01  5.4086042591784400e-01  5.3825911839620733e-01  5.3047389204650564e-01  5.1757932150997332e-01  4.9969914644165458e-01  4.7700509052348095e-01  4.4971522269815800e-01  4.1809187942597614e-01  3.8243917146621770e-01  3.4310010318911488e-01  3.0045333665954804e-01  2.5490963662518507e-01  2.0690803602452795e-01  1.5691176466417686e-01  1.0540398630154380e-01  5.2883388950241597e-02  0.0000000000000000e+00  0.0000000000000000e+00  5.1639937903555311e-02  1.0290751281308710e-01  1.5316880183052653e-01  2.0194341487548356e-01  2.4876494692533280e-01  2.9318529854665659e-01  3.3477893950042054e-01  3.7314702578840225e-01  4.0792129659407905e-01  4.3876769191808174e-01  4.6538964283134387e-01  4.8753099514893394e-01  5.0497853466380227e-01  5.1756408837895285e-01  5.2516618180597363e-01  5.2771123761966965e-01  5.2517430595382408e-01  5.1757932150997321e-01  5.0499888749806421e-01  4.8755359126399089e-01  4.6541086128042430e-01  4.3878337995113392e-01  4.0792707134436651e-01  3.7313868743897521e-01  3.3475302062039120e-01  2.9313977385666073e-01  2.4870012304766054e-01  2.0186300828587231e-01  1.5308119199940373e-01  1.0282712196992903e-01  5.1588633335896319e-02  0.0000000000000000e+00  0.0000000000000000e+00  4.9865730828932343e-02  9.9367999884014360e-02  1.4789481998427986e-01  1.9498368614038025e-01  2.4018535152729392e-01  2.8306800360570111e-01  3.2322140352485962e-01  3.6026089233131842e-01  3.9383118662560285e-01  4.2360990276711519e-01  4.4931076127226932e-01  4.7068643282408384e-01  4.8753099514893361e-01  4.9968197653918334e-01  5.0702196746874106e-01  5.0947978689526274e-01  5.0703119470045077e-01  4.9969914644165470e-01  4.8755359126399067e-01  4.7071081849193452e-01  4.4933236307954072e-01  4.2362348470659927e-01  3.9383123978217194e-01  3.6024216983242352e-01  3.2317963353493784e-01  2.8300081279461464e-01  2.4009342546439483e-01  1.9487217827998249e-01  1.4777499294760690e-01  9.9259035709556284e-02  4.9796573335290681e-02  0.0000000000000000e+00  0.0000000000000000e+00  4.7611869542205247e-02  9.4872652010452752e-02  1.4119816962415793e-01  1.8614823702872907e-01  2.2929507426304618e-01  2.7022729931536932e-01  3.0855390450270631e-01  3.4390811403293264e-01  3.7595104219290626e-01  4.0437509014135398e-01  4.2890703321599155e-01  4.4931076127226899e-01  4.6538964283134376e-01  4.7698849047404035e-01  4.8399511053779054e-01  4.8634142516487711e-01  4.8400415939920105e-01  4.7700509052348061e-01  4.6541086128042397e-01  4.4933236307954061e-01  4.2892369975330069e-01  4.0438074684109976e-01  3.7593932564460697e-01  3.4387301525319913e-01  3.0849062915492420e-01  2.7013338562111766e-01  2.2917180239405915e-01  1.8600234585363445e-01  1.4104386226750462e-01  9.4733813370428674e-02  4.7524327580464404e-02  0.0000000000000000e+00  0.0000000000000000e+00  4.4900104164227295e-02  8.9464849750822445e-02  1.3314347412511179e-01  1.7552232940349119e-01  2.1619920135454002e-01  2.5478708164820141e-01  2.9091794473592669e-01  3.2424642102779860e-01  3.5445328313726243e-01  3.8124868264246170e-01  4.0437509014135392e-01  4.2360990276711463e-01  4.3876769191808096e-01  4.4970207064154388e-01  4.5630716557616169e-01  4.5851868309952404e-01  4.5631456368804113e-01  4.4971522269815734e-01  4.3878337995113359e-01  4.2362348470659916e-01  4.0438074684109965e-01  3.8123978924850715e-01  3.5442294052910417e-01  3.2418819073866872e-01  2.9082683604086129e-01  2.5466084014694540e-01  2.1603994091364698e-01  1.7533852876180134e-01  1.3295231895016021e-01  8.9294831436850866e-02  4.4793677377375170e-02  0.0000000000000000e+00  0.0000000000000000e+00  4.1756514026046396e-02  8.3196605958334488e-02  1.2380821698696909e-01  1.6320819987472371e-01  2.0102375638050066e-01  2.3689595587200524e-01  2.7048327960885449e-01  3.0146507670032019e-01  3.2954484623201619e-01  3.5445328313726210e-01  3.7595104219290587e-01  3.9383118662560218e-01  4.0792129659407789e-01  4.1808521937243681e-01  4.2422444823289385e-01  4.2627912140560809e-01  4.2422863647678322e-01  4.1809187942597514e-01  4.0792707134436601e-01  3.9383123978217166e-01  3.7593932564460664e-01  3.5442294052910406e-01  3.2948879323821362e-01  3.0137680768874131e-01  2.7035795722353967e-01  2.3673184191657437e-01  2.0082403515599920e-01  1.6298322271570848e-01  1.2357815067400740e-01  8.2994386914200399e-02  4.1630882023415104e-02  0.0000000000000000e+00  0.0000000000000000e+00  3.8211216999784178e-02  7.6127990686081157e-02  1.1328189462187344e-01  1.4932395610673441e-01  1.8391435745868215e-01  2.1672567289555456e-01  2.4744615213339766e-01  2.7578293030022211e-01  3.0146507670031997e-01  3.2424642102779822e-01  3.4390811403293226e-01  3.6026089233131769e-01  3.7314702578840148e-01  3.8244193212158334e-01  3.8805544806076375e-01  3.8993275028906660e-01  3.8805492289399957e-01  3.8243917146621670e-01  3.7313868743897444e-01  3.6024216983242280e-01  3.4387301525319824e-01  3.2418819073866834e-01  3.0137680768874126e-01  2.7565841845469369e-01  2.4728105976158349e-01  2.1651906842185648e-01  1.8367069386274859e-01  1.4905552762554830e-01  1.1301176072688449e-01  7.5893264148450240e-02  3.8066463389588495e-02  0.0000000000000000e+00  0.0000000000000000e+00  3.4298021777616435e-02  6.8326446236839311e-02  1.0166501282824822e-01  1.3400227650527183e-0