<?xml version="1.0"?>
<VTKFile type="UnstructuredGrid"  version="0.1"  >
<UnstructuredGrid>
<Piece  NumberOfPoints="1089" NumberOfCells="2048">
<Points>
<DataArray  type="Float64"  NumberOfComponents="3"  format="ascii">0 0 0  0.03125 0 0  0.0625 0 0  0.09375 0 0  0.125 0 0  0.15625 0 0  0.1875 0 0  0.21875 0 0  0.25 0 0  0.28125 0 0  0.3125 0 0  0.34375 0 0  0.375 0 0  0.40625 0 0  0.4375 0 0  0.46875 0 0  0.5 0 0  0.53125 0 0  0.5625 0 0  0.59375 0 0  0.625 0 0  0.65625 0 0  0.6875 0 0  0.71875 0 0  0.75 0 0  0.78125 0 0  0.8125 0 0  0.84375 0 0  0.875 0 0  0.90625 0 0  0.9375 0 0  0.96875 0 0  1 0 0  0 0.03125 0  0.03125 0.03125 0  0.0625 0.03125 0  0.09375 0.03125 0  0.125 0.03125 0  0.15625 0.03125 0  0.1875 0.03125 0  0.21875 0.03125 0  0.25 0.03125 0  0.28125 0.03125 0  0.3125 0.03125 0  0.34375 0.03125 0  0.375 0.03125 0  0.40625 0.03125 0  0.4375 0.03125 0  0.46875 0.03125 0  0.5 0.03125 0  0.53125 0.03125 0  0.5625 0.03125 0  0.59375 0.03125 0  0.625 0.03125 0  0.65625 0.03125 0  0.6875 0.03125 0  0.71875 0.03125 0  0.75 0.03125 0  0.78125 0.03125 0  0.8125 0.03125 0  0.84375 0.03125 0  0.875 0.03125 0  0.90625 0.03125 0  0.9375 0.03125 0  0.96875 0.03125 0  1 0.03125 0  0 0.0625 0  0.03125 0.0625 0  0.0625 0.0625 0  0.09375 0.0625 0  0.125 0.0625 0  0.15625 0.0625 0  0.1875 0.0625 0  0.21875 0.0625 0  0.25 0.0625 0  0.28125 0.0625 0  0.3125 0.0625 0  0.34375 0.0625 0  0.375 0.0625 0  0.40625 0.0625 0  0.4375 0.0625 0  0.46875 0.0625 0  0.5 0.0625 0  0.53125 0.0625 0  0.5625 0.0625 0  0.59375 0.0625 0  0.625 0.0625 0  0.65625 0.0625 0  0.6875 0.0625 0  0.71875 0.0625 0  0.75 0.0625 0  0.78125 0.0625 0  0.8125 0.0625 0  0.84375 0.0625 0  0.875 0.0625 0  0.90625 0.0625 0  0.9375 0.0625 0  0.96875 0.0625 0  1 0.0625 0  0 0.09375 0  0.03125 0.09375 0  0.0625 0.09375 0  0.09375 0.09375 0  0.125 0.09375 0  0.15625 0.09375 0  0.1875 0.09375 0  0.21875 0.09375 0  0.25 0.09375 0  0.28125 0.09375 0  0.3125 0.09375 0  0.34375 0.09375 0  0.375 0.09375 0  0.40625 0.09375 0  0.4375 0.09375 0  0.46875 0.09375 0  0.5 0.09375 0  0.53125 0.09375 0  0.5625 0.09375 0  0.59375 0.09375 0  0.625 0.09375 0  0.65625 0.09375 0  0.6875 0.09375 0  0.71875 0.09375 0  0.75 0.09375 0  0.78125 0.09375 0  0.8125 0.09375 0  0.84375 0.09375 0  0.875 0.09375 0  0.90625 0.09375 0  0.9375 0.09375 0  0.96875 0.09375 0  1 0.09375 0  0 0.125 0  0.03125 0.125 0  0.0625 0.125 0  0.09375 0.125 0  0.125 0.125 0  0.15625 0.125 0  0.1875 0.125 0  0.21875 0.125 0  0.25 0.125 0  0.28125 0.125 0  0.3125 0.125 0  0.34375 0.125 0  0.375 0.125 0  0.40625 0.125 0  0.4375 0.125 0  0.46875 0.125 0  0.5 0.125 0  0.53125 0.125 0  0.5625 0.125 0  0.59375 0.125 0  0.625 0.125 0  0.65625 0.125 0  0.6875 0.125 0  0.71875 0.125 0  0.75 0.125 0  0.78125 0.125 0  0.8125 0.125 0  0.84375 0.125 0  0.875 0.125 0  0.90625 0.125 0  0.9375 0.125 0  0.96875 0.125 0  1 0.125 0  0 0.15625 0  0.03125 0.15625 0  0.0625 0.15625 0  0.09375 0.15625 0  0.125 0.15625 0  0.15625 0.15625 0  0.1875 0.15625 0  0.21875 0.15625 0  0.25 0.15625 0  0.28125 0.15625 0  0.3125 0.15625 0  0.34375 0.15625 0  0.375 0.15625 0  0.40625 0.15625 0  0.4375 0.15625 0  0.46875 0.15625 0  0.5 0.15625 0  0.53125 0.15625 0  0.5625 0.15625 0  0.59375 0.15625 0  0.625 0.15625 0  0.65625 0.15625 0  0.6875 0.15625 0  0.71875 0.15625 0  0.75 0.15625 0  0.78125 0.15625 0  0.8125 0.15625 0  0.84375 0.15625 0  0.875 0.15625 0  0.90625 0.15625 0  0.9375 0.15625 0  0.96875 0.15625 0  1 0.15625 0  0 0.1875 0  0.03125 0.1875 0  0.0625 0.1875 0  0.09375 0.1875 0  0.125 0.1875 0  0.15625 0.1875 0  0.1875 0.1875 0  0.21875 0.1875 0  0.25 0.1875 0  0.28125 0.1875 0  0.3125 0.1875 0  0.34375 0.1875 0  0.375 0.1875 0  0.40625 0.1875 0  0.4375 0.1875 0  0.46875 0.1875 0  0.5 0.1875 0  0.53125 0.1875 0  0.5625 0.1875 0  0.59375 0.1875 0  0.625 0.1875 0  0.65625 0.1875 0  0.6875 0.1875 0  0.71875 0.1875 0  0.75 0.1875 0  0.78125 0.1875 0  0.8125 0.1875 0  0.84375 0.1875 0  0.875 0.1875 0  0.90625 0.1875 0  0.9375 0.1875 0  0.96875 0.1875 0  1 0.1875 0  0 0.21875 0  0.03125 0.21875 0  0.0625 0.21875 0  0.09375 0.21875 0  0.125 0.21875 0  0.15625 0.21875 0  0.1875 0.21875 0  0.21875 0.21875 0  0.25 0.21875 0  0.28125 0.21875 0  0.3125 0.21875 0  0.34375 0.21875 0  0.375 0.21875 0  0.40625 0.21875 0  0.4375 0.21875 0  0.46875 0.21875 0  0.5 0.21875 0  0.53125 0.21875 0  0.5625 0.21875 0  0.59375 0.21875 0  0.625 0.21875 0  0.65625 0.21875 0  0.6875 0.21875 0  0.71875 0.21875 0  0.75 0.21875 0  0.78125 0.21875 0  0.8125 0.21875 0  0.84375 0.21875 0  0.875 0.21875 0  0.90625 0.21875 0  0.9375 0.21875 0  0.96875 0.21875 0  1 0.21875 0  0 0.25 0  0.03125 0.25 0  0.0625 0.25 0  0.09375 0.25 0  0.125 0.25 0  0.15625 0.25 0  0.1875 0.25 0  0.21875 0.25 0  0.25 0.25 0  0.28125 0.25 0  0.3125 0.25 0  0.34375 0.25 0  0.375 0.25 0  0.40625 0.25 0  0.4375 0.25 0  0.46875 0.25 0  0.5 0.25 0  0.53125 0.25 0  0.5625 0.25 0  0.59375 0.25 0  0.625 0.25 0  0.65625 0.25 0  0.6875 0.25 0  0.71875 0.25 0  0.75 0.25 0  0.78125 0.25 0  0.8125 0.25 0  0.84375 0.25 0  0.875 0.25 0  0.90625 0.25 0  0.9375 0.25 0  0.96875 0.25 0  1 0.25 0  0 0.28125 0  0.03125 0.28125 0  0.0625 0.28125 0  0.09375 0.28125 0  0.125 0.28125 0  0.15625 0.28125 0  0.1875 0.28125 0  0.21875 0.28125 0  0.25 0.28125 0  0.28125 0.28125 0  0.3125 0.28125 0  0.34375 0.28125 0  0.375 0.28125 0  0.40625 0.28125 0  0.4375 0.28125 0  0.46875 0.28125 0  0.5 0.28125 0  0.53125 0.28125 0  0.5625 0.28125 0  0.59375 0.28125 0  0.625 0.28125 0  0.65625 0.28125 0  0.6875 0.28125 0  0.71875 0.28125 0  0.75 0.28125 0  0.78125 0.28125 0  0.8125 0.28125 0  0.84375 0.28125 0  0.875 0.28125 0  0.90625 0.28125 0  0.9375 0.28125 0  0.96875 0.28125 0  1 0.28125 0  0 0.3125 0  0.03125 0.3125 0  0.0625 0.3125 0  0.09375 0.3125 0  0.125 0.3125 0  0.15625 0.3125 0  0.1875 0.3125 0  0.21875 0.3125 0  0.25 0.3125 0  0.28125 0.3125 0  0.3125 0.3125 0  0.34375 0.3125 0  0.375 0.3125 0  0.40625 0.3125 0  0.4375 0.3125 0  0.46875 0.3125 0  0.5 0.3125 0  0.53125 0.3125 0  0.5625 0.3125 0  0.59375 0.3125 0  0.625 0.3125 0  0.65625 0.3125 0  0.6875 0.3125 0  0.71875 0.3125 0  0.75 0.3125 0  0.78125 0.3125 0  0.8125 0.3125 0  0.84375 0.3125 0  0.875 0.3125 0  0.90625 0.3125 0  0.9375 0.3125 0  0.96875 0.3125 0  1 0.3125 0  0 0.34375 0  0.03125 0.34375 0  0.0625 0.34375 0  0.09375 0.34375 0  0.125 0.34375 0  0.15625 0.34375 0  0.1875 0.34375 0  0.21875 0.34375 0  0.25 0.34375 0  0.28125 0.34375 0  0.3125 0.34375 0  0.34375 0.34375 0  0.375 0.34375 0  0.40625 0.34375 0  0.4375 0.34375 0  0.46875 0.34375 0  0.5 0.34375 0  0.53125 0.34375 0  0.5625 0.34375 0  0.59375 0.34375 0  0.625 0.34375 0  0.65625 0.34375 0  0.6875 0.34375 0  0.71875 0.34375 0  0.75 0.34375 0  0.78125 0.34375 0  0.8125 0.34375 0  0.84375 0.34375 0  0.875 0.34375 0  0.90625 0.34375 0  0.9375 0.34375 0  0.96875 0.34375 0  1 0.34375 0  0 0.375 0  0.03125 0.375 0  0.0625 0.375 0  0.09375 0.375 0  0.125 0.375 0  0.15625 0.375 0  0.1875 0.375 0  0.21875 0.375 0  0.25 0.375 0  0.28125 0.375 0  0.3125 0.375 0  0.34375 0.375 0  0.375 0.375 0  0.40625 0.375 0  0.4375 0.375 0  0.46875 0.375 0  0.5 0.375 0  0.53125 0.375 0  0.5625 0.375 0  0.59375 0.375 0  0.625 0.375 0  0.65625 0.375 0  0.6875 0.375 0  0.71875 0.375 0  0.75 0.375 0  0.78125 0.375 0  0.8125 0.375 0  0.84375 0.375 0  0.875 0.375 0  0.90625 0.375 0  0.9375 0.375 0  0.96875 0.375 0  1 0.375 0  0 0.40625 0  0.03125 0.40625 0  0.0625 0.40625 0  0.09375 0.40625 0  0.125 0.40625 0  0.15625 0.40625 0  0.1875 0.40625 0  0.21875 0.40625 0  0.25 0.40625 0  0.28125 0.40625 0  0.3125 0.40625 0  0.34375 0.40625 0  0.375 0.40625 0  0.40625 0.40625 0  0.4375 0.40625 0  0.46875 0.40625 0  0.5 0.40625 0  0.53125 0.40625 0  0.5625 0.40625 0  0.59375 0.40625 0  0.625 0.40625 0  0.65625 0.40625 0  0.6875 0.40625 0  0.71875 0.40625 0  0.75 0.40625 0  0.78125 0.40625 0  0.8125 0.40625 0  0.84375 0.40625 0  0.875 0.40625 0  0.90625 0.40625 0  0.9375 0.40625 0  0.96875 0.40625 0  1 0.40625 0  0 0.4375 0  0.03125 0.4375 0  0.0625 0.4375 0  0.09375 0.4375 0  0.125 0.4375 0  0.15625 0.4375 0  0.1875 0.4375 0  0.21875 0.4375 0  0.25 0.4375 0  0.28125 0.4375 0  0.3125 0.4375 0  0.34375 0.4375 0  0.375 0.4375 0  0.40625 0.4375 0  0.4375 0.4375 0  0.46875 0.4375 0  0.5 0.4375 0  0.53125 0.4375 0  0.5625 0.4375 0  0.59375 0.4375 0  0.625 0.4375 0  0.65625 0.4375 0  0.6875 0.4375 0  0.71875 0.4375 0  0.75 0.4375 0  0.78125 0.4375 0  0.8125 0.4375 0  0.84375 0.4375 0  0.875 0.4375 0  0.90625 0.4375 0  0.9375 0.4375 0  0.96875 0.4375 0  1 0.4375 0  0 0.46875 0  0.03125 0.46875 0  0.0625 0.46875 0  0.09375 0.46875 0  0.125 0.46875 0  0.15625 0.46875 0  0.1875 0.46875 0  0.21875 0.46875 0  0.25 0.46875 0  0.28125 0.46875 0  0.3125 0.46875 0  0.34375 0.46875 0  0.375 0.46875 0  0.40625 0.46875 0  0.4375 0.46875 0  0.46875 0.46875 0  0.5 0.46875 0  0.53125 0.46875 0  0.5625 0.46875 0  0.59375 0.46875 0  0.625 0.46875 0  0.65625 0.46875 0  0.6875 0.46875 0  0.71875 0.46875 0  0.75 0.46875 0  0.78125 0.46875 0  0.8125 0.46875 0  0.84375 0.46875 0  0.875 0.46875 0  0.90625 0.46875 0  0.9375 0.46875 0  0.96875 0.46875 0  1 0.46875 0  0 0.5 0  0.03125 0.5 0  0.0625 0.5 0  0.09375 0.5 0  0.125 0.5 0  0.15625 0.5 0  0.1875 0.5 0  0.21875 0.5 0  0.25 0.5 0  0.28125 0.5 0  0.3125 0.5 0  0.34375 0.5 0  0.375 0.5 0  0.40625 0.5 0  0.4375 0.5 0  0.46875 0.5 0  0.5 0.5 0  0.53125 0.5 0  0.5625 0.5 0  0.59375 0.5 0  0.625 0.5 0  0.65625 0.5 0  0.6875 0.5 0  0.71875 0.5 0  0.75 0.5 0  0.78125 0.5 0  0.8125 0.5 0  0.84375 0.5 0  0.875 0.5 0  0.90625 0.5 0  0.9375 0.5 0  0.96875 0.5 0  1 0.5 0  0 0.53125 0  0.03125 0.53125 0  0.0625 0.53125 0  0.09375 0.53125 0  0.125 0.53125 0  0.15625 0.53125 0  0.1875 0.53125 0  0.21875 0.53125 0  0.25 0.53125 0  0.28125 0.53125 0  0.3125 0.53125 0  0.34375 0.53125 0  0.375 0.53125 0  0.40625 0.53125 0  0.4375 0.53125 0  0.46875 0.53125 0  0.5 0.53125 0  0.53125 0.53125 0  0.5625 0.53125 0  0.59375 0.53125 0  0.625 0.53125 0  0.65625 0.53125 0  0.6875 0.53125 0  0.71875 0.53125 0  0.75 0.53125 0  0.78125 0.531
[...]
<PointData  Scalars="theta_dt"> 
<DataArray  type="Float64"  Name="theta_dt"  format="ascii">1.2494032893012858e-04  9.8020027021306013e-04  1.3614323590654582e-03  1.1402996717766445e-03  8.8716814806248754e-04  1.0109894696639544e-04  9.4980319089131441e-04  1.6630555650303299e-03  1.7397374496771669e-03  2.5295441039276502e-03  7.5775760959088782e-04  9.6832054123857818e-05  1.0549739337878117e-04  7.5350199456739172e-04  1.5877289920133229e-03  2.1674718977993382e-03  2.2553618099711262e-03  1.8864811598517462e-03  1.5153353292817770e-03  1.4917802976164689e-03  2.0659369434250820e-03  6.8543088513919675e-04  1.1868750311830561e-04  1.6339230996743382e-04  9.7573247744432115e-05  1.5742721407489799e-04  7.0109108471123687e-04  6.7772607263241280e-04  1.0663749648167694e-03  1.5277043200233487e-03  1.1367529453776121e-03  1.2363821921630496e-03  1.4781431365856132e-03  4.7990412647591250e-04  1.1375731782948463e-04  1.0006729775545843e-03  1.4966381297745084e-03  1.0444684919103961e-03  9.4121957990792331e-04  9.6832054123857723e-05  1.0076707130190626e-03  1.5232917986059520e-03  1.9125132333205534e-03  2.5823767930432452e-03  6.8993313824352014e-04  9.6106101312565384e-05  1.1473204710918095e-04  8.2885532108103815e-04  1.7339888387461306e-03  2.3671370227447532e-03  2.4809073507904796e-03  2.0516132045611817e-03  1.5039748149118578e-03  1.3582557921919922e-03  2.1090866177458111e-03  7.5350199456739237e-04  1.0871296419601955e-04  1.7334711766151147e-04  9.3455157448573052e-05  1.6701859351155794e-04  6.4217114681727500e-04  7.4503200624690639e-04  1.0886475383249121e-03  1.3909643697157350e-03  1.1282306744838618e-03  1.3446081971607694e-03  1.6066219558091329e-03  5.1049801972178428e-04  1.0419711338863430e-04  1.5916203468727568e-03  1.6463081538471323e-03  9.7296354700764315e-04  9.8020027021306056e-04  9.6106101312565302e-05  1.0494034827491566e-03  1.4190063204189477e-03  2.1037724936425039e-03  1.7776995382518775e-03  6.3195091804022386e-04  9.9007072747887910e-05  1.2612624877563188e-04  9.0520856073011741e-04  1.8698560975849469e-03  2.5526148132527775e-03  2.7094458045884332e-03  2.2553618099711262e-03  1.5493724318988804e-03  1.2441075043799609e-03  9.8970189915166019e-04  8.2885532108103912e-04  1.0127040889132742e-04  1.8052630353173384e-04  9.2754521332842334e-05  1.7393568300677490e-04  5.9820772156610267e-04  8.1953829877778753e-04  1.9414959483108998e-03  1.2740672417054404e-03  1.1622864203151043e-03  8.8250439520114741e-04  1.6731603430608696e-03  5.5518417064173383e-04  9.7063715962492094e-05  1.4876676628793426e-03  1.7979642484752963e-03  9.3189950708092687e-04  1.0006729775545848e-03  9.9007072747887815e-05  1.0713215856495257e-03  1.3591169932420384e-03  2.2975696996068986e-03  1.6615935593994294e-03  5.8868717583478961e-04  1.0531877470485612e-04  1.3873939708108281e-04  9.7613647161146197e-04  1.9837785818852586e-03  2.7081349205824922e-03  2.9217453109151056e-03  2.4809073507904796e-03  1.6481449411658747e-03  1.1589351518936951e-03  9.2506200624482566e-04  9.0520856073011827e-04  9.6996279478259401e-05  1.8429682093717078e-04  9.5554325020731737e-05  1.7756854706798536e-04  5.7296029494008978e-04  8.9503326458987393e-04  1.8146920184756198e-03  1.1868438274749947e-03  1.3363932375818813e-04  8.2208761035407576e-04  1.7081063873335195e-03  6.1032029486946047e-04  9.2967130514889565e-05  1.3714483314053298e-03  1.9388443213292704e-03  9.2491302855242060e-04  1.5878147310257546e-04  1.0531877470485595e-04  1.7776995382518762e-03  1.3489276524184172e-03  2.4775965199077972e-03  1.5317868172933528e-03  5.6384156495124403e-04  1.1453779315223466e-04  1.5151991759494574e-04  1.0356083700135616e-03  2.0659369434250802e-03  2.8202925625368611e-03  3.0997549902386317e-03  2.7094458045884332e-03  1.7924143618759257e-03  1.1100221587027346e-03  8.5279446247789326e-04  9.7613647161146283e-04  9.6269095464564106e-05  1.5961498958323719e-04  1.0164591427280356e-04  9.7857682770259298e-04  5.6866479444044439e-04  9.6516388683616147e-04  1.6729249434218618e-03  8.3911157860091511e-05  1.4411067639113123e-04  7.8739130692250144e-04  1.3448102671222404e-03  6.7135485720476993e-04  9.2270153151704164e-05  1.2523978130729531e-03  2.0569699685609806e-03  9.5283161269373192e-04  1.4841106012697375e-04  1.1453779315223458e-04  1.6615935593994285e-03  1.3896451566615200e-03  2.6285460774733522e-03  1.3988178891919147e-03  5.5961442784356337e-04  1.2591270318382231e-04  1.6339230996743361e-04  1.0784981802243266e-03  2.1090866177458094e-03  2.8791978964822838e-03  3.2281316112478509e-03  2.9217453109151056e-03  1.9704215640800500e-03  1.1017002893176603e-03  7.7876642914692673e-04  1.0356083700135627e-03  9.9174986893233783e-05  1.4919013757291991e-04  1.1054343099199900e-04  9.1466354088559642e-04  5.8582999313662356e-04  1.0239672716994854e-03  1.0954265411520980e-03  7.8166549223274170e-05  1.5289073507579698e-04  7.8148821070070146e-04  1.2569773633748537e-03  7.3319932752182479e-04  9.5055336141859793e-05  1.1402996717766441e-03  2.1421595577100798e-03  1.0135746382936728e-03  1.3681691539849130e-04  1.2591270318382215e-04  1.5317868172933517e-03  1.4782350504070560e-03  2.7374075406069562e-03  1.2736141530038929e-03  5.7650644039840314e-04  1.3850449604387136e-04  1.7334711766151130e-04  1.1010239622334455e-03  2.5880886555835047e-03  2.9623489820807787e-03  3.2955551732946503e-03  3.0997549902386317e-03  2.1674718977993386e-03  1.1349552130524479e-03  7.0906152524172488e-04  1.0784981802243276e-03  1.0549739337878129e-04  1.3753512988277355e-04  1.2152165527510295e-04  8.4320834434013054e-04  6.2317666152613023e-04  6.2671311947277313e-04  1.1407937260940590e-03  7.4867520900877011e-05  1.5922271809202097e-04  8.0507750363134373e-04  1.1587799820009452e-03  7.9064939904874949e-04  1.0111511484751438e-04  1.0444684919103957e-03  2.1869012365654779e-03  1.1022973120468607e-03  1.2494032893012861e-04  1.3850449604387117e-04  1.3988178891919138e-03  1.6076315064278818e-03  2.7945817173097905e-03  1.1665791779025213e-03  6.1325873220015228e-04  1.5126337773280083e-04  1.8052630353173363e-04  1.8958416007805300e-03  2.4190541476435761e-03  2.7688706012486226e-03  2.9623489820807787e-03  3.2281316112478509e-03  2.3671370227447549e-03  1.2073086201422180e-03  6.4947174876147187e-04  1.1010239622334468e-03  1.1473204710918108e-04  1.2559619778704039e-04  1.3367432512129354e-04  7.7001244759569265e-04  5.2973691572052680e-04  6.6666608760775276e-04  1.1646206284130045e-03  7.4306236853313943e-05  1.6254828349806946e-04  8.5640120318279265e-04  1.0581904414901251e-03  8.3882034860284483e-04  1.0996616834391488e-04  9.7296354700764315e-04  1.9657885580396310e-03  1.2117680151878636e-03  1.1375731782948464e-04  1.5126337773280075e-04  1.2736141530038923e-03  1.7672876622371486e-03  2.3212784681049285e-03  1.0867144615547399e-03  6.6693998305986731e-04  1.6311566884103971e-04  1.8429682093717056e-04  1.7720194699471759e-03  2.2300731925192084e-03  2.5525613419666564e-03  2.7688706012486226e-03  3.2955551732946503e-03  2.5526148132527788e-03  1.3129896867133152e-03  6.0500851988403402e-04  1.6566298277390074e-04  1.2612624877563196e-04  1.1435448195294322e-04  1.4598825678261560e-04  1.1415574542523163e-04  4.8232185078791816e-04  7.2502232064522399e-04  6.7322063704473628e-04  7.6549177391258680e-05  8.0163710153136471e-04  9.3136579057592024e-04  9.6347518377380183e-04  8.7356016588728070e-04  1.2088706385800872e-04  9.3189950708092654e-04  1.8373980174353521e-03  1.3329498455819141e-03  1.0419711338863432e-04  1.6311566884103955e-04  1.1665791779025211e-03  1.9440237627600845e-03  2.1696699971968099e-03  1.0408495510188123e-03  7.3317473488271172e-04  1.7305362195234005e-04  9.8970189915165889e-04  1.6335860527970053e-03  2.0364885248296159e-03  2.3309826328913215e-03  2.5525613419666564e-03  2.5880886555835051e-03  2.7081349205824940e-03  1.4433845472019897e-03  5.7947406477219636e-04  1.5484312128398068e-04  1.3873939708108294e-04  1.0474409163206385e-04  4.3486796411279749e-04  1.1654003079880767e-04  4.4178735518093150e-04  7.9702531145953875e-04  6.2925092260997153e-04  8.1429188276693290e-05  7.4928018836635047e-04  1.0238610428654293e-03  8.8250439520114762e-04  8.9180556140990811e-04  1.3297627192891565e-04  9.2491302855242038e-04  1.6938571080196631e-03  1.4557397178447578e-03  9.7063715962492094e-05  1.7305362195233986e-04  1.0867144615547396e-03  2.1231050915110805e-03  2.0001713901588703e-03  1.0330462707462689e-03  8.0649525106912497e-04  1.8022065267238348e-04  9.2506200624482469e-04  1.4917802976164673e-03  1.8542089200413200e-03  2.1223437979991104e-03  2.3309826328913215e-03  2.4190541476435774e-03  2.8202925625368629e-03  1.5877289920133246e-03  5.7512973034493792e-04  1.4274649211873863e-04  1.5151991759494591e-04  4.5178472947879258e-04  4.7492752219864743e-04  1.2786858312546491e-04  4.1154232554565183e-04  8.7673115028553017e-04  5.8009268426149918e-04  8.8557045498557503e-05  6.9074504321832929e-04  1.1262513962074084e-03  8.2208761035407608e-04  1.4611339117047504e-04  1.4522589969867807e-04  9.5283161269373202e-04  1.5468194383729459e-03  1.5698046764112633e-03  9.2967130514889592e-05  1.8022065267238335e-04  1.0408495510188119e-03  2.2894616807604871e-03  1.8265436746269272e-03  1.0642288666675701e-03  8.8078870568604321e-04  1.8398478617773152e-04  8.5279446247789217e-04  1.3582557921919904e-03  1.6983805593708044e-03  1.9439812891972068e-03  2.1223437979991104e-03  2.2300731925192102e-03  2.8791978964822855e-03  1.7339888387461315e-03  5.9249007372115233e-04  1.3035518032979924e-04  3.0174807179815641e-04  4.9133144626296421e-04  5.1214062250608771e-04  1.1951716788976252e-04  3.9417313371959095e-04  9.5749465861199614e-04  5.2973691572052680e-04  9.7351770780809482e-05  6.3078393965535634e-04  1.2300004348786905e-03  7.8739130692250176e-04  1.3657036213758167e-04  1.5660512225395613e-04  1.0135746382936726e-03  1.4083685546739751e-03  1.6654462869255685e-03  9.2270153151704191e-05  1.8398478617773133e-04  1.0330462707462684e-03  2.4289489721726291e-03  1.6630555650303306e-03  1.1320734684114498e-03  9.4980319089131538e-04  1.6566298277390052e-04  7.7876642914692564e-04  1.2441075043799600e-03  1.5821083986859083e-03  1.8108951539498117e-03  1.9439812891972068e-03  2.0364885248296176e-03  1.8958416007805315e-03  1.8698560975849488e-03  6.3026132231985257e-04  6.1335563686254691e-05  3.1085636487211200e-04  5.4012626623564121e-04  5.4334320119776218e-04  1.1018026711655397e-04  3.9121800592488692e-04  1.0325194636808062e-03  4.8232185078791816e-04  1.0708735187179209e-04  5.7432447728897665e-04  1.3263775185849299e-03  7.8148821070070157e-04  1.2590123449379495e-04  1.6614641508625879e-04  1.1022973120468605e-03  1.2900087729241076e-03  1.7344208889380314e-03  9.5055336141859834e-05  9.6300266323785420e-04  1.0642288666675695e-03  2.5295441039276498e-03  1.5232917986059520e-03  1.2311688691917985e-03  1.0076707130190637e-03  1.5484312128398052e-04  7.0906152524172390e-04  1.1589351518936943e-03  1.5153353292817755e-03  1.7344661128684733e-03  1.8108951539498117e-03  1.8542089200413205e-03  1.7720194699471772e-03  1.9837785818852607e-03  4.5483908560147423e-05  6.0875729127408185e-05  3.3067346149000162e-04  5.9414113440014874e-04  5.6584580686748682e-04  1.0061591269659251e-04  4.0302695712228162e-04  1.0954265411520976e-03  4.4178735518093150e-04  1.1695212082831879e-04  5.2605804904479702e-04  1.4071881340287818e-03  8.0507750363134395e-04  1.1497219919443868e-04  1.7302738323655994e-04  1.2117680151878631e-03  1.2016939918211456e-03  1.7706464362524960e-03  1.0111511484751446e-04  9.0010656384262354e-04  1.1320734684114493e-03  2.5823767930432447e-03  1.4190063204189479e-03  1.3534379887140732e-03  1.0494034827491575e-03  1.4274649211873847e-04  6.4947174876147143e-04  1.1100221587027337e-03  1.5039748149118571e-03  1.7214627684478559e-03  1.7344661128684733e-03  1.6983805593708055e-03  1.6335860527970077e-03  2.0094925800147358e-04  4.5142914334768586e-05  6.2713268564459036e-05  3.5961877299858964e-04  6.4887276158094988e-04  5.7766420353239350e-04  9.1610102657332476e-05  4.2871992999157511e-04  1.1407937260940588e-03  4.1154232554565183e-04  1.2611594225396305e-04  4.9004379672034758e-04  1.4654669523030529e-03  8.5640120318279265e-04  1.0468140365334570e-04  1.7664127632220647e-04  1.3329498455819139e-03  1.1509763568063461e-03  8.9949717743339640e-04  1.0996616834391494e-04  8.2978858509279206e-04  1.2311688691917981e-03  2.5120278284820690e-03  1.3591169932420384e-03  1.4887874043955775e-03  1.0713215856495268e-03  1.3035518032979910e-04  6.0500851988403370e-04  1.1017002893176592e-03  1.5493724318988802e-03  1.7734252791525280e-03  1.7214627684478559e-03  1.5821083986859092e-03  2.2021213368893743e-04  2.0701492968568455e-04  4.6505557322090065e-05  6.6711240112755436e-05  3.9533302133487402e-04  6.9971539763558945e-04  1.0475692969915387e-04  8.3911157860091511e-05  4.6624768280134014e-04  1.1646206284130040e-03  3.9417313371959095e-04  1.3379965731096812e-04  4.6936144115188565e-04  1.4960750606099955e-03  9.3136579057592056e-04  9.5883942187338989e-05  8.9949717743339585e-04  1.4557397178447575e-03  1.1423474525709164e-03  8.4074877928529352e-04  1.2088706385800879e-04  7.5775760959088739e-04  1.3534379887140723e-03  2.3479610423606579e-03  1.3489276524184177e-03  1.6259328610068557e-03  1.6538249714905402e-04  1.1868750311830549e-04  5.7947406477219549e-04  1.1349552130524474e-03  1.6481449411658742e-03  1.8864811598517462e-03  1.7734252791525280e-03  6.5058269084850484e-05  2.3948827631881654e-04  2.2021213368893743e-04  4.9470287103639927e-05  7.2550770196261371e-05  4.3486796411279749e-04  7.4234612013064269e-04  9.7914994038722752e-05  7.8166549223274170e-05  5.1255139879185509e-04  1.0468684490693792e-03  3.9121800592488692e-04  1.3934098169043180e-04  4.6584262436338055e-04  1.5354035820145313e-03  1.0238610428654296e-03  8.9319669491449343e-05  8.4074877928529319e-04  1.5698046764112631e-03  1.1768293146365086e-03  7.7506793973742562e-04  1.3297627192891567e-04  6.8993313824351949e-04  1.4887874043955768e-03  2.1645340112574668e-03  1.3896451566615200e-03  1.7533333586021572e-03  1.5458095487299770e-04  1.0871296419601941e-04  5.7512973034493727e-04  1.2073086201422169e-03  1.7924143618759242e-03  2.0516132045611817e-03  5.2000957623253159e-05  7.1051365206995323e-05  2.6327219533605988e-04  2.3948827631881654e-04  5.3800640268910264e-05  7.9755889668119853e-05  4.7492752219864743e-04  7.7309044889913644e-04  9.0265694781630981e-05  7.4867520900877011e-05  5.6380866577541945e-04  9.7849486658621631e-04  4.0302695712228162e-04  1.4225129219076334e-04  4.7990412647591239e-04  1.4351225547726289e-03  1.1262513962074087e-03  8.5549922427935620e-05  7.7506793973742595e-04  1.6654462869255685e-03  1.2518521961545083e-03  7.0778706749778739e-04  1.4522589969867813e-04  6.3195091804022321e-04  1.6259328610068549e-03  1.9766385651897290e-03  1.4782350504070558e-03  1.8601566014584126e-03  1.4250480662952313e-04  1.0127040889132740e-04  5.9249007372115200e-04  1.3129896867133139e-03  1.9704215640800487e-03  3.7549066677199416e-05  5.3087062595116158e-05  7.6618618012619328e-05  2.8960050745753269e-04  2.6327219533605988e-04  5.9143657851650568e-05  8.7731809624375101e-05  5.1214062250608771e-04  7.8923740885192154e-04  8.2430053069650855e-05  7.4306236853313943e-05  6.1574609934106491e-04  9.0205304958435820e-04  4.2871992999157511e-04  1.4611339117047496e-04  5.1049801972178417e-04  1.3230081436976871e-03  1.2300004348786908e-03  8.4908552096031131e-05  7.0778706749778729e-04  1.7344208889380312e-03  1.3614323590654582e-03  6.4443530029420991e-04  1.5660512225395615e-04  5.8868717583478863e-04  1.7533333586021564e-03  1.7997159397591586e-03  1.6076315064278818e-03  1.9371951479871630e-03  1.3013447469239846e-04  9.6996279478259319e-05  6.3026132231985203e-04  1.4433845472019890e-03  9.5638793957944049e-05  3.4188169254680487e-05  7.7683391577697210e-05  8.1286668842267562e-05  3.1627818736861820e-04  2.8960050745753269e-04  6.5058269084850470e-05  9.5813567338568945e-05  5.4334320119776218e-04  5.1925787168901065e-04  7.5052001431735927e-05  7.6549177391258680e-05  6.6399308501293342e-04  8.2374905470744293e-04  4.6624768280134014e-04  1.3657036213758162e-04  5.5518417064173372e-04  1.2081625445902336e-03  1.3263775185849301e-03  8.7471524486765084e-05  6.4443530029420959e-04  1.7706464362524958e-03  1.4966381297745086e-03  5.9027673417059372e-04  1.6614641508625887e-04  5.6384156495124316e-04  1.8601566014584121e-03  1.6484671880494448e-03  1.7672876622371490e-03  1.9776558890554560e-03  1.1848655213990213e-04  9.6269095464563984e-05  6.8543088513919621e-04  4.9932978980233612e-05  1.0173576810567543e-04  3.1314983654233538e-05  7.2609696037124552e-05  8.4653163262609572e-05  3.4106026749974384e-04  3.1627818736861820e-04  7.1051365206995296e-05  1.0332107053753603e-04  5.6584580686748682e-04  4.8534384844041483e-04  6.8744605203759602e-05  8.1429188276693290e-05  7.0444739692527832e-04  7.5001789918847591e-04  5.1255139879185509e-04  1.2590123449379489e-04  6.1032029486946036e-04  1.1000237613548328e-03  1.4071881340287820e-03  9.3047835117501132e-05  5.9027673417059339e-04  1.9657885580396306e-03  1.6463081538471329e-03  5.4986603180747569e-04  1.7302738323656002e-04  5.5961442784356282e-04  1.9371951479871621e-03  1.5356121269648588e-03  1.9440237627600847e-03  9.6300266323785517e-04  1.0852890120752987e-04  9.9174986893233661e-05  3.1314983654233538e-05  5.2000957623253159e-05  1.1064115012851814e-04  2.9171140926406496e-05  6.6937293159432696e-05  8.6421250346112376e-05  3.6183963817959617e-04  3.4106026749974384e-04  7.6618618012619315e-05  1.0961598973019817e-04  5.7766420353239350e-04  4.4742789516117454e-04  6.4038307938185353e-05  8.8557045498557503e-05  7.3362214679447530e-04  6.8698613483827509e-04  5.6380866577541945e-04  1.1497219919443865e-04  6.7135485720476982e-04  1.0075773829679156e-03  1.4654669523030532e-03  1.0119272391668050e-04  5.4986603180747537e-04  1.8373980174353514e-03  1.7979642484752970e-03  5.2665887183325896e-04  1.7664127632220652e-04  5.7650644039840249e-04  1.9776558890554552e-03  1.4708014381291138e-03  2.1231050915110805e-03  9.0010656384262398e-04  1.0109894696639552e-04  1.4706521700188652e-05  2.9171140926406496e-05  5.3087062595116158e-05  1.2162907903710576e-04  2.7939969522920786e-05  6.1126706450540140e-05  3.4580000264965621e-04  3.7682525808922611e-04  3.6183963817959617e-04  8.1286668842267562e-05  1.1415574542523163e-04  7.0943938480483889e-04  4.0858828187387064e-04  6.1335563686254691e-05  9.7351770780809482e-05  7.4894476194466229e-04  6.3995464839226716e-04  6.1574609934106491e-04  1.0468140365334568e-04  7.3319932752182447e-04  9.3859802570400849e-04  1.4960750606099957e-03  1.1124231627152559e-04  5.2665887183325874e-04  1.6938571080196627e-03  1.9388443213292708e-03  5.2271049449004582e-04  1.6538249714905388e-04  6.1325873220015152e-04  2.3212784681049285e-03  1.4597747956756034e-03  2.2894616807604875e-03  8.2978858509279271e-04  1.0551679227509833e-05  1.5858855986205792e-05  2.7939969522920786e-05  1.5975608741978541e-04  1.3379249170530867e-04  2.7730502734199699e-05  5.5655449550260395e-05  3.2321494430267625e-04  3.8469572442370093e-04  3.7682525808922611e-04  8.4653163262609558e-05  1.1654003079880767e-04  6.6310413386010082e-04  3.7201684548567444e-04  6.0875729127408185e-05  1.0708735187179209e-04  1.0468684490693790e-03  6.1294528785282073e-04  6.6399308501293342e-04  9.5883942187339002e-05  7.9064939904874938e-04  8.9898438661014486e-04  8.0163710153136481e-04  1.2236700955777928e-04  5.2271049449004550e-04  1.5468194383729452e-03  2.0569699685609811e-03  5.3848855845007725e-04  1.5458095487299754e-04  6.6693998305986655e-04  2.1696699971968099e-03  1.5038382310498678e-03  2.4289489721726295e-03  1.6825069522339876e-05  9.8293048833928599e-06  1.6825069522339876e-05  2.7730502734199699e-05  1.493220199