<?xml version="1.0"?>
<VTKFile type="UnstructuredGrid"  version="0.1"  >
<UnstructuredGrid>
<Piece  NumberOfPoints="1089" NumberOfCells="2048">
<Points>
<DataArray  type="Float64"  NumberOfComponents="3"  format="ascii">0 0 0  0.03125 0 0  0.0625 0 0  0.09375 0 0  0.125 0 0  0.15625 0 0  0.1875 0 0  0.21875 0 0  0.25 0 0  0.28125 0 0  0.3125 0 0  0.34375 0 0  0.375 0 0  0.40625 0 0  0.4375 0 0  0.46875 0 0  0.5 0 0  0.53125 0 0  0.5625 0 0  0.59375 0 0  0.625 0 0  0.65625 0 0  0.6875 0 0  0.71875 0 0  0.75 0 0  0.78125 0 0  0.8125 0 0  0.84375 0 0  0.875 0 0  0.90625 0 0  0.9375 0 0  0.96875 0 0  1 0 0  0 0.03125 0  0.03125 0.03125 0  0.0625 0.03125 0  0.09375 0.03125 0  0.125 0.03125 0  0.15625 0.03125 0  0.1875 0.03125 0  0.21875 0.03125 0  0.25 0.03125 0  0.28125 0.03125 0  0.3125 0.03125 0  0.34375 0.03125 0  0.375 0.03125 0  0.40625 0.03125 0  0.4375 0.03125 0  0.46875 0.03125 0  0.5 0.03125 0  0.53125 0.03125 0  0.5625 0.03125 0  0.59375 0.03125 0  0.625 0.03125 0  0.65625 0.03125 0  0.6875 0.03125 0  0.71875 0.03125 0  0.75 0.03125 0  0.78125 0.03125 0  0.8125 0.03125 0  0.84375 0.03125 0  0.875 0.03125 0  0.90625 0.03125 0  0.9375 0.03125 0  0.96875 0.03125 0  1 0.03125 0  0 0.0625 0  0.03125 0.0625 0  0.0625 0.0625 0  0.09375 0.0625 0  0.125 0.0625 0  0.15625 0.0625 0  0.1875 0.0625 0  0.21875 0.0625 0  0.25 0.0625 0  0.28125 0.0625 0  0.3125 0.0625 0  0.34375 0.0625 0  0.375 0.0625 0  0.40625 0.0625 0  0.4375 0.0625 0  0.46875 0.0625 0  0.5 0.0625 0  0.53125 0.0625 0  0.5625 0.0625 0  0.59375 0.0625 0  0.625 0.0625 0  0.65625 0.0625 0  0.6875 0.0625 0  0.71875 0.0625 0  0.75 0.0625 0  0.78125 0.0625 0  0.8125 0.0625 0  0.84375 0.0625 0  0.875 0.0625 0  0.90625 0.0625 0  0.9375 0.0625 0  0.96875 0.0625 0  1 0.0625 0  0 0.09375 0  0.03125 0.09375 0  0.0625 0.09375 0  0.09375 0.09375 0  0.125 0.09375 0  0.15625 0.09375 0  0.1875 0.09375 0  0.21875 0.09375 0  0.25 0.09375 0  0.28125 0.09375 0  0.3125 0.09375 0  0.34375 0.09375 0  0.375 0.09375 0  0.40625 0.09375 0  0.4375 0.09375 0  0.46875 0.09375 0  0.5 0.09375 0  0.53125 0.09375 0  0.5625 0.09375 0  0.59375 0.09375 0  0.625 0.09375 0  0.65625 0.09375 0  0.6875 0.09375 0  0.71875 0.09375 0  0.75 0.09375 0  0.78125 0.09375 0  0.8125 0.09375 0  0.84375 0.09375 0  0.875 0.09375 0  0.90625 0.09375 0  0.9375 0.09375 0  0.96875 0.09375 0  1 0.09375 0  0 0.125 0  0.03125 0.125 0  0.0625 0.125 0  0.09375 0.125 0  0.125 0.125 0  0.15625 0.125 0  0.1875 0.125 0  0.21875 0.125 0  0.25 0.125 0  0.28125 0.125 0  0.3125 0.125 0  0.34375 0.125 0  0.375 0.125 0  0.40625 0.125 0  0.4375 0.125 0  0.46875 0.125 0  0.5 0.125 0  0.53125 0.125 0  0.5625 0.125 0  0.59375 0.125 0  0.625 0.125 0  0.65625 0.125 0  0.6875 0.125 0  0.71875 0.125 0  0.75 0.125 0  0.78125 0.125 0  0.8125 0.125 0  0.84375 0.125 0  0.875 0.125 0  0.90625 0.125 0  0.9375 0.125 0  0.96875 0.125 0  1 0.125 0  0 0.15625 0  0.03125 0.15625 0  0.0625 0.15625 0  0.09375 0.15625 0  0.125 0.15625 0  0.15625 0.15625 0  0.1875 0.15625 0  0.21875 0.15625 0  0.25 0.15625 0  0.28125 0.15625 0  0.3125 0.15625 0  0.34375 0.15625 0  0.375 0.15625 0  0.40625 0.15625 0  0.4375 0.15625 0  0.46875 0.15625 0  0.5 0.15625 0  0.53125 0.15625 0  0.5625 0.15625 0  0.59375 0.15625 0  0.625 0.15625 0  0.65625 0.15625 0  0.6875 0.15625 0  0.71875 0.15625 0  0.75 0.15625 0  0.78125 0.15625 0  0.8125 0.15625 0  0.84375 0.15625 0  0.875 0.15625 0  0.90625 0.15625 0  0.9375 0.15625 0  0.96875 0.15625 0  1 0.15625 0  0 0.1875 0  0.03125 0.1875 0  0.0625 0.1875 0  0.09375 0.1875 0  0.125 0.1875 0  0.15625 0.1875 0  0.1875 0.1875 0  0.21875 0.1875 0  0.25 0.1875 0  0.28125 0.1875 0  0.3125 0.1875 0  0.34375 0.1875 0  0.375 0.1875 0  0.40625 0.1875 0  0.4375 0.1875 0  0.46875 0.1875 0  0.5 0.1875 0  0.53125 0.1875 0  0.5625 0.1875 0  0.59375 0.1875 0  0.625 0.1875 0  0.65625 0.1875 0  0.6875 0.1875 0  0.71875 0.1875 0  0.75 0.1875 0  0.78125 0.1875 0  0.8125 0.1875 0  0.84375 0.1875 0  0.875 0.1875 0  0.90625 0.1875 0  0.9375 0.1875 0  0.96875 0.1875 0  1 0.1875 0  0 0.21875 0  0.03125 0.21875 0  0.0625 0.21875 0  0.09375 0.21875 0  0.125 0.21875 0  0.15625 0.21875 0  0.1875 0.21875 0  0.21875 0.21875 0  0.25 0.21875 0  0.28125 0.21875 0  0.3125 0.21875 0  0.34375 0.21875 0  0.375 0.21875 0  0.40625 0.21875 0  0.4375 0.21875 0  0.46875 0.21875 0  0.5 0.21875 0  0.53125 0.21875 0  0.5625 0.21875 0  0.59375 0.21875 0  0.625 0.21875 0  0.65625 0.21875 0  0.6875 0.21875 0  0.71875 0.21875 0  0.75 0.21875 0  0.78125 0.21875 0  0.8125 0.21875 0  0.84375 0.21875 0  0.875 0.21875 0  0.90625 0.21875 0  0.9375 0.21875 0  0.96875 0.21875 0  1 0.21875 0  0 0.25 0  0.03125 0.25 0  0.0625 0.25 0  0.09375 0.25 0  0.125 0.25 0  0.15625 0.25 0  0.1875 0.25 0  0.21875 0.25 0  0.25 0.25 0  0.28125 0.25 0  0.3125 0.25 0  0.34375 0.25 0  0.375 0.25 0  0.40625 0.25 0  0.4375 0.25 0  0.46875 0.25 0  0.5 0.25 0  0.53125 0.25 0  0.5625 0.25 0  0.59375 0.25 0  0.625 0.25 0  0.65625 0.25 0  0.6875 0.25 0  0.71875 0.25 0  0.75 0.25 0  0.78125 0.25 0  0.8125 0.25 0  0.84375 0.25 0  0.875 0.25 0  0.90625 0.25 0  0.9375 0.25 0  0.96875 0.25 0  1 0.25 0  0 0.28125 0  0.03125 0.28125 0  0.0625 0.28125 0  0.09375 0.28125 0  0.125 0.28125 0  0.15625 0.28125 0  0.1875 0.28125 0  0.21875 0.28125 0  0.25 0.28125 0  0.28125 0.28125 0  0.3125 0.28125 0  0.34375 0.28125 0  0.375 0.28125 0  0.40625 0.28125 0  0.4375 0.28125 0  0.46875 0.28125 0  0.5 0.28125 0  0.53125 0.28125 0  0.5625 0.28125 0  0.59375 0.28125 0  0.625 0.28125 0  0.65625 0.28125 0  0.6875 0.28125 0  0.71875 0.28125 0  0.75 0.28125 0  0.78125 0.28125 0  0.8125 0.28125 0  0.84375 0.28125 0  0.875 0.28125 0  0.90625 0.28125 0  0.9375 0.28125 0  0.96875 0.28125 0  1 0.28125 0  0 0.3125 0  0.03125 0.3125 0  0.0625 0.3125 0  0.09375 0.3125 0  0.125 0.3125 0  0.15625 0.3125 0  0.1875 0.3125 0  0.21875 0.3125 0  0.25 0.3125 0  0.28125 0.3125 0  0.3125 0.3125 0  0.34375 0.3125 0  0.375 0.3125 0  0.40625 0.3125 0  0.4375 0.3125 0  0.46875 0.3125 0  0.5 0.3125 0  0.53125 0.3125 0  0.5625 0.3125 0  0.59375 0.3125 0  0.625 0.3125 0  0.65625 0.3125 0  0.6875 0.3125 0  0.71875 0.3125 0  0.75 0.3125 0  0.78125 0.3125 0  0.8125 0.3125 0  0.84375 0.3125 0  0.875 0.3125 0  0.90625 0.3125 0  0.9375 0.3125 0  0.96875 0.3125 0  1 0.3125 0  0 0.34375 0  0.03125 0.34375 0  0.0625 0.34375 0  0.09375 0.34375 0  0.125 0.34375 0  0.15625 0.34375 0  0.1875 0.34375 0  0.21875 0.34375 0  0.25 0.34375 0  0.28125 0.34375 0  0.3125 0.34375 0  0.34375 0.34375 0  0.375 0.34375 0  0.40625 0.34375 0  0.4375 0.34375 0  0.46875 0.34375 0  0.5 0.34375 0  0.53125 0.34375 0  0.5625 0.34375 0  0.59375 0.34375 0  0.625 0.34375 0  0.65625 0.34375 0  0.6875 0.34375 0  0.71875 0.34375 0  0.75 0.34375 0  0.78125 0.34375 0  0.8125 0.34375 0  0.84375 0.34375 0  0.875 0.34375 0  0.90625 0.34375 0  0.9375 0.34375 0  0.96875 0.34375 0  1 0.34375 0  0 0.375 0  0.03125 0.375 0  0.0625 0.375 0  0.09375 0.375 0  0.125 0.375 0  0.15625 0.375 0  0.1875 0.375 0  0.21875 0.375 0  0.25 0.375 0  0.28125 0.375 0  0.3125 0.375 0  0.34375 0.375 0  0.375 0.375 0  0.40625 0.375 0  0.4375 0.375 0  0.46875 0.375 0  0.5 0.375 0  0.53125 0.375 0  0.5625 0.375 0  0.59375 0.375 0  0.625 0.375 0  0.65625 0.375 0  0.6875 0.375 0  0.71875 0.375 0  0.75 0.375 0  0.78125 0.375 0  0.8125 0.375 0  0.84375 0.375 0  0.875 0.375 0  0.90625 0.375 0  0.9375 0.375 0  0.96875 0.375 0  1 0.375 0  0 0.40625 0  0.03125 0.40625 0  0.0625 0.40625 0  0.09375 0.40625 0  0.125 0.40625 0  0.15625 0.40625 0  0.1875 0.40625 0  0.21875 0.40625 0  0.25 0.40625 0  0.28125 0.40625 0  0.3125 0.40625 0  0.34375 0.40625 0  0.375 0.40625 0  0.40625 0.40625 0  0.4375 0.40625 0  0.46875 0.40625 0  0.5 0.40625 0  0.53125 0.40625 0  0.5625 0.40625 0  0.59375 0.40625 0  0.625 0.40625 0  0.65625 0.40625 0  0.6875 0.40625 0  0.71875 0.40625 0  0.75 0.40625 0  0.78125 0.40625 0  0.8125 0.40625 0  0.84375 0.40625 0  0.875 0.40625 0  0.90625 0.40625 0  0.9375 0.40625 0  0.96875 0.40625 0  1 0.40625 0  0 0.4375 0  0.03125 0.4375 0  0.0625 0.4375 0  0.09375 0.4375 0  0.125 0.4375 0  0.15625 0.4375 0  0.1875 0.4375 0  0.21875 0.4375 0  0.25 0.4375 0  0.28125 0.4375 0  0.3125 0.4375 0  0.34375 0.4375 0  0.375 0.4375 0  0.40625 0.4375 0  0.4375 0.4375 0  0.46875 0.4375 0  0.5 0.4375 0  0.53125 0.4375 0  0.5625 0.4375 0  0.59375 0.4375 0  0.625 0.4375 0  0.65625 0.4375 0  0.6875 0.4375 0  0.71875 0.4375 0  0.75 0.4375 0  0.78125 0.4375 0  0.8125 0.4375 0  0.84375 0.4375 0  0.875 0.4375 0  0.90625 0.4375 0  0.9375 0.4375 0  0.96875 0.4375 0  1 0.4375 0  0 0.46875 0  0.03125 0.46875 0  0.0625 0.46875 0  0.09375 0.46875 0  0.125 0.46875 0  0.15625 0.46875 0  0.1875 0.46875 0  0.21875 0.46875 0  0.25 0.46875 0  0.28125 0.46875 0  0.3125 0.46875 0  0.34375 0.46875 0  0.375 0.46875 0  0.40625 0.46875 0  0.4375 0.46875 0  0.46875 0.46875 0  0.5 0.46875 0  0.53125 0.46875 0  0.5625 0.46875 0  0.59375 0.46875 0  0.625 0.46875 0  0.65625 0.46875 0  0.6875 0.46875 0  0.71875 0.46875 0  0.75 0.46875 0  0.78125 0.46875 0  0.8125 0.46875 0  0.84375 0.46875 0  0.875 0.46875 0  0.90625 0.46875 0  0.9375 0.46875 0  0.96875 0.46875 0  1 0.46875 0  0 0.5 0  0.03125 0.5 0  0.0625 0.5 0  0.09375 0.5 0  0.125 0.5 0  0.15625 0.5 0  0.1875 0.5 0  0.21875 0.5 0  0.25 0.5 0  0.28125 0.5 0  0.3125 0.5 0  0.34375 0.5 0  0.375 0.5 0  0.40625 0.5 0  0.4375 0.5 0  0.46875 0.5 0  0.5 0.5 0  0.53125 0.5 0  0.5625 0.5 0  0.59375 0.5 0  0.625 0.5 0  0.65625 0.5 0  0.6875 0.5 0  0.71875 0.5 0  0.75 0.5 0  0.78125 0.5 0  0.8125 0.5 0  0.84375 0.5 0  0.875 0.5 0  0.90625 0.5 0  0.9375 0.5 0  0.96875 0.5 0  1 0.5 0  0 0.53125 0  0.03125 0.53125 0  0.0625 0.53125 0  0.09375 0.53125 0  0.125 0.53125 0  0.15625 0.53125 0  0.1875 0.53125 0  0.21875 0.53125 0  0.25 0.53125 0  0.28125 0.53125 0  0.3125 0.53125 0  0.34375 0.53125 0  0.375 0.53125 0  0.40625 0.53125 0  0.4375 0.53125 0  0.46875 0.53125 0  0.5 0.53125 0  0.53125 0.53125 0  0.5625 0.53125 0  0.59375 0.53125 0  0.625 0.53125 0  0.65625 0.53125 0  0.6875 0.53125 0  0.71875 0.53125 0  0.75 0.53125 0  0.78125 0.531
[...]
<PointData  Scalars="phi"> 
<DataArray  type="Float64"  Name="phi"  format="ascii">0.0000000000000000e+00  0.0000000000000000e+00  0.0000000000000000e+00  0.0000000000000000e+00  0.0000000000000000e+00  0.0000000000000000e+00  0.0000000000000000e+00  0.0000000000000000e+00  0.0000000000000000e+00  0.0000000000000000e+00  0.0000000000000000e+00  0.0000000000000000e+00  0.0000000000000000e+00  0.0000000000000000e+00  0.0000000000000000e+00  0.0000000000000000e+00  0.0000000000000000e+00  0.0000000000000000e+00  0.0000000000000000e+00  0.0000000000000000e+00  0.0000000000000000e+00  0.0000000000000000e+00  0.0000000000000000e+00  0.0000000000000000e+00  0.0000000000000000e+00  0.0000000000000000e+00  0.0000000000000000e+00  0.0000000000000000e+00  0.0000000000000000e+00  0.0000000000000000e+00  0.0000000000000000e+00  0.0000000000000000e+00  0.0000000000000000e+00  0.0000000000000000e+00  1.1531380564433475e-18  8.2970195245573523e-09  3.2766910885295380e-08  8.0490586445195564e-08  1.5740785445246751e-07  2.6801669483265765e-07  4.1513071041338212e-07  5.9970485473321087e-07  8.2073678520348120e-07  1.0752482229823862e-06  1.3583475802133727e-06  1.6633719463724447e-06  1.9821034259618721e-06  2.3050519078596384e-06  2.6217937343119669e-06  2.9213535257219778e-06  3.1926146916726388e-06  3.4247429860425878e-06  3.6076068904348758e-06  3.7321786582838546e-06  3.7909005209707846e-06  3.7780018224140709e-06  3.6897546627070860e-06  3.5246579269768102e-06  3.2835422686816184e-06  2.9695916125666875e-06  2.5882799481227820e-06  2.1472255344995187e-06  1.6559681717231190e-06  1.1256793018737942e-06  5.6882101085990165e-07  0.0000000000000000e+00  0.0000000000000000e+00  -8.2970195199734383e-09  4.5574105240999352e-18  4.0650691256056672e-08  1.2783255909232820e-07  2.7345082263297842e-07  4.8653796097615907e-07  7.7276955175680013e-07  1.1341162239294321e-06  1.5686462817192648e-06  2.0704877100944349e-06  2.6299520773215667e-06  3.2338165460577303e-06  3.8657540337529131e-06  4.5068957639551321e-06  5.1365052464913380e-06  5.7327383177413835e-06  6.2734604330588375e-06  6.7370900653969562e-06  7.1034359186615231e-06  7.3544957567465307e-06  7.4751859776320470e-06  7.4539735770068477e-06  7.2833857529970404e-06  6.9603769667930659e-06  6.4865386219708606e-06  5.8681424595834022e-06  5.1160150716258946e-06  4.2452473938901307e-06  3.2747494386785409e-06  2.2266666277594501e-06  1.1256793018737967e-06  0.0000000000000000e+00  0.0000000000000000e+00  -3.2766910878477996e-08  -4.0650691242496959e-08  1.0088165702442628e-17  1.1047193852025941e-07  3.0866762031266481e-07  6.0820914030654267e-07  1.0177154062295453e-06  1.5402820819719572e-06  2.1731858868510073e-06  2.9078262124886551e-06  3.7299078163027876e-06  4.6198589752892054e-06  5.5534703020891556e-06  6.5027307938863063e-06  7.4368299379785130e-06  8.3232881360276122e-06  9.1291725863763190e-06  9.8223522794004208e-06  1.0372744050596831e-05  1.0753501767739846e-05  1.0942102698891420e-05  1.0921288843512347e-05  1.0679826367600841e-05  1.0213053061199164e-05  9.5231916729809082e-06  8.6194157655943244e-06  7.5176640319773470e-06  6.2402084350116850e-06  4.8149906416951302e-06  3.2747494386785536e-06  1.6559681717231291e-06  0.0000000000000000e+00  0.0000000000000000e+00  -8.0490586436206426e-08  -1.2783255907444564e-07  -1.1047193849364687e-07  1.7553086733313742e-17  2.2752325848555100e-07  5.9038385938492374e-07  1.1002572344239757e-06  1.7615190382579749e-06  2.5708519254304378e-06  3.5171654131890385e-06  4.5818338254666450e-06  5.7392449546320097e-06  6.9576399712075565e-06  8.2002137285669027e-06  9.4264343912797275e-06  1.0593532658321979e-05  1.1658104091463250e-05  1.2577763457306850e-05  1.3312787728090723e-05  1.3827684550841864e-05  1.4092625582689529e-05  1.4084689004459834e-05  1.3788862577423675e-05  1.3198767528137126e-05  1.2317073988326734e-05  1.1155590271775264e-05  9.7350204757961252e-06  8.0843972415379808e-06  6.2402084350117197e-06  4.2452473938901714e-06  2.1472255344995432e-06  0.0000000000000000e+00  0.0000000000000000e+00  -1.5740785444138628e-07  -2.7345082261093122e-07  -3.0866762027985081e-07  -2.2752325844226004e-07  2.6693964211187144e-17  3.9693716762973676e-07  9.7815671900816754e-07  1.7495063317603308e-06  2.7073234279806052e-06  3.8383316880192843e-06  5.1199297625871421e-06  6.5208631801167435e-06  8.0022555270839458e-06  9.5189609493863084e-06  1.1021187426843150e-05  1.2456329598451878e-05  1.3770941576882098e-05  1.4912774510430888e-05  1.5832800850506648e-05  1.6487147472945680e-05  1.6838862977136342e-05  1.6859450527802083e-05  1.6530106279108282e-05  1.5842614395389492e-05  1.4799862531895716e-05  1.3415955860218913e-05  1.1715922753179443e-05  9.7350204757962015e-06  7.5176640319774444e-06  5.1160150716259827e-06  2.5882799481228320e-06  0.0000000000000000e+00  0.0000000000000000e+00  -2.6801669481958200e-07  -4.8653796095014139e-07  -6.0820914026781622e-07  -5.9038385933382849e-07  -3.9693716756671978e-07  3.7193442161306055e-17  6.1863824389027601e-07  1.4665156441063171e-06  2.5399139180561264e-06  3.8237298683660036e-06  5.2918095691683446e-06  6.9077347780033709e-06  8.6260334664434922e-06  1.0393769816116928e-05  1.2152454168983585e-05  1.3840200826559101e-05  1.5394051749963766e-05  1.6752377502833523e-05  1.7857263463276974e-05  1.8656789539517643e-05  1.9107115351158674e-05  1.9174289942904968e-05  1.8835715308155408e-05  1.8081205923484358e-05  1.6913601632670697e-05  1.5348907983610265e-05  1.3415955860219045e-05  1.1155590271775456e-05  8.6194157655945158e-06  5.8681424595835563e-06  2.9695916125667722e-06  0.0000000000000000e+00  0.0000000000000000e+00  -4.1513071039842701e-07  -7.7276955172704048e-07  -1.0177154061852461e-06  -1.1002572343655250e-06  -9.7815671893607572e-07  -6.1863824380517260e-07  4.8683690666872291e-17  8.8721869508517573e-07  2.0395616646625151e-06  3.4405005301017527e-06  5.0608084089589335e-06  6.8594507807113898e-06  8.7849615398574803e-06  1.0777253346648788e-05  1.2769794403224179e-05  1.4692069384302820e-05  1.6472230993771305e-05  1.8039840937524339e-05  1.9328595297217769e-05  2.0278929508477689e-05  2.0840402384961252e-05  2.0973766726019748e-05  2.0652645691247941e-05  1.9864748873407549e-05  1.8612579285434451e-05  1.6913601632670890e-05  1.4799862531896031e-05  1.2317073988327086e-05  9.5231916729812284e-06  6.4865386219711045e-06  3.2835422686817489e-06  0.0000000000000000e+00  0.0000000000000000e+00  -5.9970485471650875e-07  -1.1341162238961943e-06  -1.5402820819224778e-06  -1.7615190381926852e-06  -1.7495063316798006e-06  -1.4665156440112487e-06  -8.8721869497640347e-07  6.0757831671115493e-17  1.1922787225129967e-06  2.6720948012684094e-06  4.4076713468947931e-06  6.3539613963464888e-06  8.4541739650180170e-06  1.0641785406084633e-05  1.2842960527544647e-05  1.4979291846828912e-05  1.6970752792180370e-05  1.8738752075592035e-05  2.0209172197045125e-05  2.1315275261169640e-05  2.2000363989799475e-05  2.2220094819397580e-05  2.1944352937610190e-05  2.1158615542580092e-05  1.9864748873407823e-05  1.8081205923484822e-05  1.5842614395390045e-05  1.3198767528137683e-05  1.0213053061199649e-05  6.9603769667934234e-06  3.5246579269769987e-06  0.0000000000000000e+00  0.0000000000000000e+00  -8.2073678518517989e-07  -1.5686462816828445e-06  -2.1731858867967874e-06  -2.5708519253588902e-06  -2.7073234278923537e-06  -2.5399139179519397e-06  -2.0395616645433053e-06  -1.1922787223798160e-06  7.2983926486976269e-17  1.5192032006626283e-06  3.3315561256886246e-06  5.3886458935968879e-06  7.6290805567409130e-06  9.9806801714773761e-06  1.2363117407020827e-05  1.4690907629781417e-05  1.6876634631333751e-05  1.8834288756807225e-05  2.0482589501087703e-05  2.1748164856141917e-05  2.2568464808957502e-05  2.2894296212765225e-05  2.2691880410388179e-05  2.1944352937610563e-05  2.0652645691248585e-05  1.8835715308156215e-05  1.6530106279109139e-05  1.3788862577424485e-05  1.0679826367601525e-05  7.2833857529975342e-06  3.6897546627073440e-06  0.0000000000000000e+00  0.0000000000000000e+00  -1.0752482229626520e-06  -2.0704877100551596e-06  -2.9078262124301819e-06  -3.5171654131118754e-06  -3.8383316879241032e-06  -3.8237298682536312e-06  -3.4405005299731744e-06  -2.6720948011247577e-06  -1.5192032005051812e-06  8.4915763352259591e-17  1.8503089123408270e-06  3.9806197166500626e-06  6.3257045224791390e-06  8.8085591724500332e-06  1.1343236422942457e-05  1.3838056981065491e-05  1.6199076038159810e-05  1.8333672786437017e-05  2.0154125330904628e-05  2.1581033611388113e-05  2.2546458424743764e-05  2.2996655178461954e-05  2.2894296212765706e-05  2.2220094819398417e-05  2.0973766726020832e-05  1.9174289942906167e-05  1.6859450527803289e-05  1.4084689004460937e-05  1.0921288843513263e-05  7.4539735770074999e-06  3.7780018224144085e-06  0.0000000000000000e+00  0.0000000000000000e+00  -1.3583475801923834e-06  -2.6299520772797918e-06  -3.7299078162405917e-06  -4.5818338253845666e-06  -5.1199297624858937e-06  -5.2918095690488062e-06  -5.0608084088221496e-06  -4.4076713467419680e-06  -3.3315561255211209e-06  -1.8503089121601471e-06  9.6113109796472955e-17  2.1662649160121703e-06  4.5802142177797108e-06  7.1608905341772316e-06  9.8176478130824395e-06  1.2453551376204452e-05  1.4969051261770751e-05  1.7265788357519431e-05  1.9250387410222927e-05  2.0838091179968394e-05  2.1956095783698465e-05  2.2546458424744340e-05  2.2568464808958553e-05  2.2000363989800854e-05  2.0840402384962827e-05  1.9107115351160317e-05  1.6838862977137942e-05  1.4092625582690961e-05  1.0942102698892591e-05  7.4751859776328737e-06  3.7909005209712111e-06  0.0000000000000000e+00  0.0000000000000000e+00  -1.6633719463503925e-06  -3.2338165460138379e-06  -4.6198589752238534e-06  -5.7392449545457639e-06  -6.5208631800103503e-06  -6.9077347778777559e-06  -6.8594507805676517e-06  -6.3539613961858905e-06  -5.3886458934208584e-06  -3.9806197164601816e-06  -2.1662649158101538e-06  1.0615324766705964e-16  2.4476652733625462e-06  5.0927169658966165e-06  7.8407678091096840e-06  1.0590612626142297e-05  1.3238072560036078e-05  1.5679980987054870e-05  1.7818158283903424e-05  1.9563222772176508e-05  2.0838091179969072e-05  2.1581033611389356e-05  2.1748164856143608e-05  2.1315275261171619e-05  2.0278929508479830e-05  1.8656789539519795e-05  1.6487147472947706e-05  1.3827684550843650e-05  1.0753501767741284e-05  7.3544957567475395e-06  3.7321786582843743e-06  0.0000000000000000e+00  0.0000000000000000e+00  -1.9821034259389602e-06  -3.8657540337073072e-06  -5.5534703020212498e-06  -6.9576399711179387e-06  -8.0022555269733927e-06  -8.6260334663129593e-06  -8.7849615397081112e-06  -8.4541739648511261e-06  -7.6290805565579844e-06  -6.3257045222818099e-06  -4.5802142175697686e-06  -2.4476652731419060e-06  1.1465233597976209e-16  2.6766203206664963e-06  5.4850488470598097e-06  8.3208289576809848e-06  1.1076171877823067e-05  1.3644083833235472e-05  1.5922484455241705e-05  1.7818158283904190e-05  1.9250387410224357e-05  2.0154125330906610e-05  2.0482589501090088e-05  2.0209172197047744e-05  1.9328595297220493e-05  1.7857263463279657e-05  1.5832800850509125e-05  1.3312787728092884e-05  1.0372744050598560e-05  7.1034359186627276e-06  3.6076068904354929e-06  0.0000000000000000e+00  0.0000000000000000e+00  -2.3050519078360807e-06  -4.5068957639082395e-06  -6.5027307938164803e-06  -8.2002137284747472e-06  -9.5189609492726247e-06  -1.0393769815982700e-05  -1.0777253346495186e-05  -1.0641785405913007e-05  -9.9806801712892552e-06  -8.8085591722470994e-06  -7.1608905339613229e-06  -5.0927169656697007e-06  -2.6766203204306633e-06  1.2127517952748169e-16  2.8382310388709497e-06  5.7314064147950070e-06  8.5691786765777063e-06  1.1241747828240535e-05  1.3644083833236319e-05  1.5679980987056463e-05  1.7265788357521664e-05  1.8333672786439758e-05  1.8834288756810322e-05  1.8738752075595342e-05  1.8039840937527693e-05  1.6752377502836758e-05  1.4912774510433849e-05  1.2577763457309399e-05  9.8223522794024418e-06  6.7370900653983597e-06  3.4247429860433049e-06  0.0000000000000000e+00  0.0000000000000000e+00  -2.6217937342879835e-06  -5.1365052464435976e-06  -7.4368299379074249e-06  -9.4264343911859051e-06  -1.1021187426727411e-05  -1.2152454168846924e-05  -1.2769794403067788e-05  -1.2842960527369905e-05  -1.2363117406829284e-05  -1.1343236422735828e-05  -9.8176478128626006e-06  -7.8407678088786337e-06  -5.4850488468196733e-06  -2.8382310386239689e-06  1.2574823497252917e-16  2.9218210008652142e-06  5.8153986495849456e-06  8.5691786765785974e-06  1.1076171877824785e-05  1.3238072560038525e-05  1.4969051261773807e-05  1.6199076038163330e-05  1.6876634631337589e-05  1.6970752792184358e-05  1.6472230993775276e-05  1.5394051749967544e-05  1.3770941576885525e-05  1.1658104091466179e-05  9.1291725863786314e-06  6.2734604330604359e-06  3.1926146916734553e-06  0.0000000000000000e+00  0.0000000000000000e+00  -2.9213535256977997e-06  -5.7327383176932534e-06  -8.3232881359559430e-06  -1.0593532658227386e-05  -1.2456329598335182e-05  -1.3840200826421310e-05  -1.4692069384145137e-05  -1.4979291846652719e-05  -1.4690907629588283e-05  -1.3838056980857140e-05  -1.2453551375982775e-05  -1.0590612625909309e-05  -8.3208289574388333e-06  -5.7314064145459488e-06  -2.9218210006115960e-06  1.2788060081929357e-16  2.9218210008661273e-06  5.7314064147967976e-06  8.3208289576835852e-06  1.0590612626145597e-05  1.2453551376208326e-05  1.3838056981069791e-05  1.4690907629785984e-05  1.4979291846833564e-05  1.4692069384307386e-05  1.3840200826563403e-05  1.2456329598455753e-05  1.0593532658325274e-05  8.3232881360302041e-06  5.7327383177431682e-06  2.9213535257228871e-06  0.0000000000000000e+00  0.0000000000000000e+00  -3.1926146916484975e-06  -6.2734604330107811e-06  -9.1291725863047600e-06  -1.1658104091368801e-05  -1.3770941576765574e-05  -1.5394051749826174e-05  -1.6472230993613849e-05  -1.6970752792004428e-05  -1.6876634631140885e-05  -1.6199076037951745e-05  -1.4969051261549369e-05  -1.3238072559803397e-05  -1.1076171877581233e-05  -8.5691786763289700e-06  -5.8153986493316523e-06  -2.9218210006106880e-06  1.2755947514039078e-16  2.8382310388736195e-06  5.4850488470632605e-06  7.8407678091138039e-06  9.8176478130870897e-06  1.1343236422947490e-05  1.2363117407026075e-05  1.2842960527549917e-05  1.2769794403229301e-05  1.2152454168988374e-05  1.1021187426847442e-05  9.4264343912833545e-06  7.4368299379813548e-06  5.1365052464932921e-06  2.6217937343129609e-06  0.0000000000000000e+00  0.0000000000000000e+00  -3.4247429860187189e-06  -6.7370900653494410e-06  -9.8223522793296682e-06  -1.2577763457213461e-05  -1.4912774510315670e-05  -1.6752377502697476e-05  -1.8039840937368648e-05  -1.8738752075418058e-05  -1.8834288756616514e-05  -1.8333672786231269e-05  -1.7265788357300504e-05  -1.5679980986824765e-05  -1.3644083832996313e-05  -1.1241747827994543e-05  -8.5691786763280925e-06  -5.7314064145441709e-06  -2.8382310386213028e-06  1.2477412827603287e-16  2.6766203206707425e-06  5.0927169659014946e-06  7.1608905341826018e-06  8.8085591724557354e-06  9.9806801714832376e-06  1.0641785406090461e-05  1.0777253346654403e-05  1.0393769816122144e-05  9.5189609493909569e-06  8.2002137285708211e-06  6.5027307938893658e-06  4.5068957639572302e-06  2.3050519078607056e-06  0.0000000000000000e+00  0.0000000000000000e+00  -3.6076068904115151e-06  -7.1034359186150167e-06  -1.0372744050527575e-05  -1.3312787727999309e-05  -1.5832800850393861e-05  -1.7857263463143800e-05  -1.9328595297065364e-05  -2.0209172196874814e-05  -2.0482589500901023e-05  -2.0154125330703217e-05  -1.9250387410008608e-05  -1.7818158283678151e-05  -1.5922484455007568e-05  -1.3644083832995487e-05  -1.1076171877579539e-05  -8.3208289574362549e-06  -5.4850488468162284e-06  -2.6766203204264162e-06  1.1960811318238609e-16  2.4476652733680896e-06  4.5802142177857010e-06  6.3257045224854112e-06  7.6290805567472928e-06  8.4541739650243054e-06  8.7849615398634960e-06  8.6260334664490504e-06  8.0022555270888806e-06  6.9576399712117061e-06  5.5534703020923888e-06  3.8657540337551256e-06  1.9821034259629965e-06  0.0000000000000000e+00  0.0000000000000000e+00  -3.7321786582612342e-06  -7.3544957567014965e-06  -1.0753501767672773e-05  -1.3827684550753332e-05  -1.6487147472836446e-05  -1.8656789539388660e-05  -2.0278929508330078e-05  -2.1315275261004692e-05  -2.1748164855961096e-05  -2.1581033611193028e-05  -2.0838091179760807e-05  -1.9563222771958309e-05  -1.7818158283677395e-05  -1.5679980986823190e-05  -1.3238072559800966e-05  -1.0590612625906014e-05  -7.8407678088745070e-06  -5.0927169656648175e-06  -2.4476652731363596e-06  1.1224087477166356e-16  2.1662649160186543e-06  3.9806197166567796e-06  5.3886458936036591e-06  6.3539613963531244e-06  6.8594507807177053e-06  6.9077347780091815e-06  6.5208631801218816e-06  5.7392449546363194e-06  4.6198589752925562e-06  3.2338165460600232e-06  1.6633719463736081e-06  0.0000000000000000e+00  0.0000000000000000e+00  -3.7909005209491298e-06  -7.4751859775889381e-06  -1.0942102698827213e-05  -1.4092625582604767e-05  -1.6838862977031757e-05  -1.9107115351035173e-05  -2.0840402384819906e-05  -2.2000363989641528e-05  -2.2568464808784355e-05  -2.2546458424556955e-05  -2.1956095783499684e-05  -2.0838091179760129e-05  -1.9250387410007192e-05  -1.7265788357298278e-05  -1.4969051261546315e-05  -1.2453551375978896e-05  -9.8176478128579318e-06  -7.1608905339559476e-06  -4.5802142175637792e-06  -2.1662649158036710e-06  1.0294514812323105e-16  1.8503089123478458e-06  3.3315561256956504e-06  4.4076713469016422e-06  5.0608084089654235e-06  5.2918095691742942e-06  5.1199297625923878e-06  4.5818338254710368e-06  3.7299078163061978e-06  2.6299520773238964e-06  1.3583475802145543e-06  0.0000000000000000e+00  0.0000000000000000e+00  -3.7780018223936007e-06  -7.4539735769660919e-06  -1.0921288843451648e-05  -1.4084689004379703e-05  -1.6859450527703210e-05  -1.9174289942788203e-05  -2.0973766725886114e-05  -2.2220094819248238e-05  -2.2894296212601507e-05  -2.2996655178285317e-05  -2.2546458424556380e-05  -2.1581033611191784e-05  -2.0154125330701235e-05  -1.8333672786228518e-05  -1.6199076037948214e-05  -1.3838056980852835e-05  -1.1343236422730785e-05  -8.8085591722413954e-06  -6.3257045222755436e-06  -3.9806197164534714e-06  -1.8503089121531330e-06  9.2072204330528455e-17  1.5192032006697544e-06  2.6720948012753288e-06  3.4405005301082846e-06  3.8237298683719752e-06  3.8383316880245351e-06  3.5171654131934261e-06  2.9078262124920560e-06  2.0704877100967579e-06  1.0752482229835635e-06  0.0000000000000000e+00  0.0000000000000000e+00  -3.6897546626880079e-06  -7.2833857529590526e-06  -1.0679826367544266e-05  -1.3788862577348989e-05  -1.6530106279016132e-05  -1.8835715308046572e-05  -2.0652645691123370e-05  -2.1944352937470975e-05  -2.2691880410235557e-05  -2.2894296212601046e-05  -2.2568464808783325e-05  -2.1748164855959419e-05  -2.0482589500898625e-05  -1.8834288756613390e-05  -1.6876634631137043e-05  -1.4690907629583712e-05  -1.2363117406824038e-05  -9.9806801712833954e-06  -7.6290805565516189e-06  -5.3886458934140965e-06  -3.3315561255141028e-06  -1.5192032004980585e-06  8.0046708867789138e-17  1.1922787225198293e-06  2.0395616646689466e-06  2.5399139180619934e-06  2.7073234279857548e-06  2.5708519254347323e-06  2.1731858868543319e-06  1.5686462817215346e-06  8.2073678520463073e-07  0.0000000000000000e+00  0.0000000000000000e+00  -3.5246579269593207e-06  -6.9603769667582418e-06  -1.0213053061147297e-05  -1.3198767528068652e-05  -1.5842614395304992e-05  -1.8081205923384561e-05  -1.9864748873293318e-05  -2.1158615542452431e-05  -2.1944352937470609e-05  -2.2220094819247415e-05  -2.2000363989640169e-05  -2.1315275261002720e-05  -2.0209172196872195e-05  -1.8738752075414745e-05  -1.6970752792000433e-05  -1.4979291846648058e-05  -1.2842960527364627e-05  -1.0641785405907178e-05  -8.4541739648448428e-06  -6.3539613961792633e-06  -4.4076713467351282e-06  -2.6720948011178459e-06  -1.1922787223729856e-06  6.7345613198058135e-17  8.8721869509136130e-07  1.4665156