<?xml version="1.0"?>
<VTKFile type="UnstructuredGrid"  version="0.1"  >
<UnstructuredGrid>
<Piece  NumberOfPoints="1089" NumberOfCells="2048">
<Points>
<DataArray  type="Float64"  NumberOfComponents="3"  format="ascii">0 0 0  0.03125 0 0  0.0625 0 0  0.09375 0 0  0.125 0 0  0.15625 0 0  0.1875 0 0  0.21875 0 0  0.25 0 0  0.28125 0 0  0.3125 0 0  0.34375 0 0  0.375 0 0  0.40625 0 0  0.4375 0 0  0.46875 0 0  0.5 0 0  0.53125 0 0  0.5625 0 0  0.59375 0 0  0.625 0 0  0.65625 0 0  0.6875 0 0  0.71875 0 0  0.75 0 0  0.78125 0 0  0.8125 0 0  0.84375 0 0  0.875 0 0  0.90625 0 0  0.9375 0 0  0.96875 0 0  1 0 0  0 0.03125 0  0.03125 0.03125 0  0.0625 0.03125 0  0.09375 0.03125 0  0.125 0.03125 0  0.15625 0.03125 0  0.1875 0.03125 0  0.21875 0.03125 0  0.25 0.03125 0  0.28125 0.03125 0  0.3125 0.03125 0  0.34375 0.03125 0  0.375 0.03125 0  0.40625 0.03125 0  0.4375 0.03125 0  0.46875 0.03125 0  0.5 0.03125 0  0.53125 0.03125 0  0.5625 0.03125 0  0.59375 0.03125 0  0.625 0.03125 0  0.65625 0.03125 0  0.6875 0.03125 0  0.71875 0.03125 0  0.75 0.03125 0  0.78125 0.03125 0  0.8125 0.03125 0  0.84375 0.03125 0  0.875 0.03125 0  0.90625 0.03125 0  0.9375 0.03125 0  0.96875 0.03125 0  1 0.03125 0  0 0.0625 0  0.03125 0.0625 0  0.0625 0.0625 0  0.09375 0.0625 0  0.125 0.0625 0  0.15625 0.0625 0  0.1875 0.0625 0  0.21875 0.0625 0  0.25 0.0625 0  0.28125 0.0625 0  0.3125 0.0625 0  0.34375 0.0625 0  0.375 0.0625 0  0.40625 0.0625 0  0.4375 0.0625 0  0.46875 0.0625 0  0.5 0.0625 0  0.53125 0.0625 0  0.5625 0.0625 0  0.59375 0.0625 0  0.625 0.0625 0  0.65625 0.0625 0  0.6875 0.0625 0  0.71875 0.0625 0  0.75 0.0625 0  0.78125 0.0625 0  0.8125 0.0625 0  0.84375 0.0625 0  0.875 0.0625 0  0.90625 0.0625 0  0.9375 0.0625 0  0.96875 0.0625 0  1 0.0625 0  0 0.09375 0  0.03125 0.09375 0  0.0625 0.09375 0  0.09375 0.09375 0  0.125 0.09375 0  0.15625 0.09375 0  0.1875 0.09375 0  0.21875 0.09375 0  0.25 0.09375 0  0.28125 0.09375 0  0.3125 0.09375 0  0.34375 0.09375 0  0.375 0.09375 0  0.40625 0.09375 0  0.4375 0.09375 0  0.46875 0.09375 0  0.5 0.09375 0  0.53125 0.09375 0  0.5625 0.09375 0  0.59375 0.09375 0  0.625 0.09375 0  0.65625 0.09375 0  0.6875 0.09375 0  0.71875 0.09375 0  0.75 0.09375 0  0.78125 0.09375 0  0.8125 0.09375 0  0.84375 0.09375 0  0.875 0.09375 0  0.90625 0.09375 0  0.9375 0.09375 0  0.96875 0.09375 0  1 0.09375 0  0 0.125 0  0.03125 0.125 0  0.0625 0.125 0  0.09375 0.125 0  0.125 0.125 0  0.15625 0.125 0  0.1875 0.125 0  0.21875 0.125 0  0.25 0.125 0  0.28125 0.125 0  0.3125 0.125 0  0.34375 0.125 0  0.375 0.125 0  0.40625 0.125 0  0.4375 0.125 0  0.46875 0.125 0  0.5 0.125 0  0.53125 0.125 0  0.5625 0.125 0  0.59375 0.125 0  0.625 0.125 0  0.65625 0.125 0  0.6875 0.125 0  0.71875 0.125 0  0.75 0.125 0  0.78125 0.125 0  0.8125 0.125 0  0.84375 0.125 0  0.875 0.125 0  0.90625 0.125 0  0.9375 0.125 0  0.96875 0.125 0  1 0.125 0  0 0.15625 0  0.03125 0.15625 0  0.0625 0.15625 0  0.09375 0.15625 0  0.125 0.15625 0  0.15625 0.15625 0  0.1875 0.15625 0  0.21875 0.15625 0  0.25 0.15625 0  0.28125 0.15625 0  0.3125 0.15625 0  0.34375 0.15625 0  0.375 0.15625 0  0.40625 0.15625 0  0.4375 0.15625 0  0.46875 0.15625 0  0.5 0.15625 0  0.53125 0.15625 0  0.5625 0.15625 0  0.59375 0.15625 0  0.625 0.15625 0  0.65625 0.15625 0  0.6875 0.15625 0  0.71875 0.15625 0  0.75 0.15625 0  0.78125 0.15625 0  0.8125 0.15625 0  0.84375 0.15625 0  0.875 0.15625 0  0.90625 0.15625 0  0.9375 0.15625 0  0.96875 0.15625 0  1 0.15625 0  0 0.1875 0  0.03125 0.1875 0  0.0625 0.1875 0  0.09375 0.1875 0  0.125 0.1875 0  0.15625 0.1875 0  0.1875 0.1875 0  0.21875 0.1875 0  0.25 0.1875 0  0.28125 0.1875 0  0.3125 0.1875 0  0.34375 0.1875 0  0.375 0.1875 0  0.40625 0.1875 0  0.4375 0.1875 0  0.46875 0.1875 0  0.5 0.1875 0  0.53125 0.1875 0  0.5625 0.1875 0  0.59375 0.1875 0  0.625 0.1875 0  0.65625 0.1875 0  0.6875 0.1875 0  0.71875 0.1875 0  0.75 0.1875 0  0.78125 0.1875 0  0.8125 0.1875 0  0.84375 0.1875 0  0.875 0.1875 0  0.90625 0.1875 0  0.9375 0.1875 0  0.96875 0.1875 0  1 0.1875 0  0 0.21875 0  0.03125 0.21875 0  0.0625 0.21875 0  0.09375 0.21875 0  0.125 0.21875 0  0.15625 0.21875 0  0.1875 0.21875 0  0.21875 0.21875 0  0.25 0.21875 0  0.28125 0.21875 0  0.3125 0.21875 0  0.34375 0.21875 0  0.375 0.21875 0  0.40625 0.21875 0  0.4375 0.21875 0  0.46875 0.21875 0  0.5 0.21875 0  0.53125 0.21875 0  0.5625 0.21875 0  0.59375 0.21875 0  0.625 0.21875 0  0.65625 0.21875 0  0.6875 0.21875 0  0.71875 0.21875 0  0.75 0.21875 0  0.78125 0.21875 0  0.8125 0.21875 0  0.84375 0.21875 0  0.875 0.21875 0  0.90625 0.21875 0  0.9375 0.21875 0  0.96875 0.21875 0  1 0.21875 0  0 0.25 0  0.03125 0.25 0  0.0625 0.25 0  0.09375 0.25 0  0.125 0.25 0  0.15625 0.25 0  0.1875 0.25 0  0.21875 0.25 0  0.25 0.25 0  0.28125 0.25 0  0.3125 0.25 0  0.34375 0.25 0  0.375 0.25 0  0.40625 0.25 0  0.4375 0.25 0  0.46875 0.25 0  0.5 0.25 0  0.53125 0.25 0  0.5625 0.25 0  0.59375 0.25 0  0.625 0.25 0  0.65625 0.25 0  0.6875 0.25 0  0.71875 0.25 0  0.75 0.25 0  0.78125 0.25 0  0.8125 0.25 0  0.84375 0.25 0  0.875 0.25 0  0.90625 0.25 0  0.9375 0.25 0  0.96875 0.25 0  1 0.25 0  0 0.28125 0  0.03125 0.28125 0  0.0625 0.28125 0  0.09375 0.28125 0  0.125 0.28125 0  0.15625 0.28125 0  0.1875 0.28125 0  0.21875 0.28125 0  0.25 0.28125 0  0.28125 0.28125 0  0.3125 0.28125 0  0.34375 0.28125 0  0.375 0.28125 0  0.40625 0.28125 0  0.4375 0.28125 0  0.46875 0.28125 0  0.5 0.28125 0  0.53125 0.28125 0  0.5625 0.28125 0  0.59375 0.28125 0  0.625 0.28125 0  0.65625 0.28125 0  0.6875 0.28125 0  0.71875 0.28125 0  0.75 0.28125 0  0.78125 0.28125 0  0.8125 0.28125 0  0.84375 0.28125 0  0.875 0.28125 0  0.90625 0.28125 0  0.9375 0.28125 0  0.96875 0.28125 0  1 0.28125 0  0 0.3125 0  0.03125 0.3125 0  0.0625 0.3125 0  0.09375 0.3125 0  0.125 0.3125 0  0.15625 0.3125 0  0.1875 0.3125 0  0.21875 0.3125 0  0.25 0.3125 0  0.28125 0.3125 0  0.3125 0.3125 0  0.34375 0.3125 0  0.375 0.3125 0  0.40625 0.3125 0  0.4375 0.3125 0  0.46875 0.3125 0  0.5 0.3125 0  0.53125 0.3125 0  0.5625 0.3125 0  0.59375 0.3125 0  0.625 0.3125 0  0.65625 0.3125 0  0.6875 0.3125 0  0.71875 0.3125 0  0.75 0.3125 0  0.78125 0.3125 0  0.8125 0.3125 0  0.84375 0.3125 0  0.875 0.3125 0  0.90625 0.3125 0  0.9375 0.3125 0  0.96875 0.3125 0  1 0.3125 0  0 0.34375 0  0.03125 0.34375 0  0.0625 0.34375 0  0.09375 0.34375 0  0.125 0.34375 0  0.15625 0.34375 0  0.1875 0.34375 0  0.21875 0.34375 0  0.25 0.34375 0  0.28125 0.34375 0  0.3125 0.34375 0  0.34375 0.34375 0  0.375 0.34375 0  0.40625 0.34375 0  0.4375 0.34375 0  0.46875 0.34375 0  0.5 0.34375 0  0.53125 0.34375 0  0.5625 0.34375 0  0.59375 0.34375 0  0.625 0.34375 0  0.65625 0.34375 0  0.6875 0.34375 0  0.71875 0.34375 0  0.75 0.34375 0  0.78125 0.34375 0  0.8125 0.34375 0  0.84375 0.34375 0  0.875 0.34375 0  0.90625 0.34375 0  0.9375 0.34375 0  0.96875 0.34375 0  1 0.34375 0  0 0.375 0  0.03125 0.375 0  0.0625 0.375 0  0.09375 0.375 0  0.125 0.375 0  0.15625 0.375 0  0.1875 0.375 0  0.21875 0.375 0  0.25 0.375 0  0.28125 0.375 0  0.3125 0.375 0  0.34375 0.375 0  0.375 0.375 0  0.40625 0.375 0  0.4375 0.375 0  0.46875 0.375 0  0.5 0.375 0  0.53125 0.375 0  0.5625 0.375 0  0.59375 0.375 0  0.625 0.375 0  0.65625 0.375 0  0.6875 0.375 0  0.71875 0.375 0  0.75 0.375 0  0.78125 0.375 0  0.8125 0.375 0  0.84375 0.375 0  0.875 0.375 0  0.90625 0.375 0  0.9375 0.375 0  0.96875 0.375 0  1 0.375 0  0 0.40625 0  0.03125 0.40625 0  0.0625 0.40625 0  0.09375 0.40625 0  0.125 0.40625 0  0.15625 0.40625 0  0.1875 0.40625 0  0.21875 0.40625 0  0.25 0.40625 0  0.28125 0.40625 0  0.3125 0.40625 0  0.34375 0.40625 0  0.375 0.40625 0  0.40625 0.40625 0  0.4375 0.40625 0  0.46875 0.40625 0  0.5 0.40625 0  0.53125 0.40625 0  0.5625 0.40625 0  0.59375 0.40625 0  0.625 0.40625 0  0.65625 0.40625 0  0.6875 0.40625 0  0.71875 0.40625 0  0.75 0.40625 0  0.78125 0.40625 0  0.8125 0.40625 0  0.84375 0.40625 0  0.875 0.40625 0  0.90625 0.40625 0  0.9375 0.40625 0  0.96875 0.40625 0  1 0.40625 0  0 0.4375 0  0.03125 0.4375 0  0.0625 0.4375 0  0.09375 0.4375 0  0.125 0.4375 0  0.15625 0.4375 0  0.1875 0.4375 0  0.21875 0.4375 0  0.25 0.4375 0  0.28125 0.4375 0  0.3125 0.4375 0  0.34375 0.4375 0  0.375 0.4375 0  0.40625 0.4375 0  0.4375 0.4375 0  0.46875 0.4375 0  0.5 0.4375 0  0.53125 0.4375 0  0.5625 0.4375 0  0.59375 0.4375 0  0.625 0.4375 0  0.65625 0.4375 0  0.6875 0.4375 0  0.71875 0.4375 0  0.75 0.4375 0  0.78125 0.4375 0  0.8125 0.4375 0  0.84375 0.4375 0  0.875 0.4375 0  0.90625 0.4375 0  0.9375 0.4375 0  0.96875 0.4375 0  1 0.4375 0  0 0.46875 0  0.03125 0.46875 0  0.0625 0.46875 0  0.09375 0.46875 0  0.125 0.46875 0  0.15625 0.46875 0  0.1875 0.46875 0  0.21875 0.46875 0  0.25 0.46875 0  0.28125 0.46875 0  0.3125 0.46875 0  0.34375 0.46875 0  0.375 0.46875 0  0.40625 0.46875 0  0.4375 0.46875 0  0.46875 0.46875 0  0.5 0.46875 0  0.53125 0.46875 0  0.5625 0.46875 0  0.59375 0.46875 0  0.625 0.46875 0  0.65625 0.46875 0  0.6875 0.46875 0  0.71875 0.46875 0  0.75 0.46875 0  0.78125 0.46875 0  0.8125 0.46875 0  0.84375 0.46875 0  0.875 0.46875 0  0.90625 0.46875 0  0.9375 0.46875 0  0.96875 0.46875 0  1 0.46875 0  0 0.5 0  0.03125 0.5 0  0.0625 0.5 0  0.09375 0.5 0  0.125 0.5 0  0.15625 0.5 0  0.1875 0.5 0  0.21875 0.5 0  0.25 0.5 0  0.28125 0.5 0  0.3125 0.5 0  0.34375 0.5 0  0.375 0.5 0  0.40625 0.5 0  0.4375 0.5 0  0.46875 0.5 0  0.5 0.5 0  0.53125 0.5 0  0.5625 0.5 0  0.59375 0.5 0  0.625 0.5 0  0.65625 0.5 0  0.6875 0.5 0  0.71875 0.5 0  0.75 0.5 0  0.78125 0.5 0  0.8125 0.5 0  0.84375 0.5 0  0.875 0.5 0  0.90625 0.5 0  0.9375 0.5 0  0.96875 0.5 0  1 0.5 0  0 0.53125 0  0.03125 0.53125 0  0.0625 0.53125 0  0.09375 0.53125 0  0.125 0.53125 0  0.15625 0.53125 0  0.1875 0.53125 0  0.21875 0.53125 0  0.25 0.53125 0  0.28125 0.53125 0  0.3125 0.53125 0  0.34375 0.53125 0  0.375 0.53125 0  0.40625 0.53125 0  0.4375 0.53125 0  0.46875 0.53125 0  0.5 0.53125 0  0.53125 0.53125 0  0.5625 0.53125 0  0.59375 0.53125 0  0.625 0.53125 0  0.65625 0.53125 0  0.6875 0.53125 0  0.71875 0.53125 0  0.75 0.53125 0  0.78125 0.531
[...]
<PointData  Scalars="theta"> 
<DataArray  type="Float64"  Name="theta"  format="ascii">-9.4327818540376186e-07  -1.4541691933684296e-06  -1.8880521303961333e-06  -1.7208593184980290e-06  -4.4512226592060100e-07  -6.8346323236387130e-07  -5.1776144304217972e-06  -1.2400419871205986e-05  -1.7989273006645153e-05  -3.9381656331096459e-06  -6.9585042898962635e-06  -7.8599372609520167e-06  -1.1490395348077018e-06  -7.7957092026353809e-07  -1.8375009228509070e-06  -5.8836754859794604e-07  -8.6677442359813991e-06  -2.7264774727832637e-06  -1.5022628553263246e-05  -5.6522760136802617e-06  -2.1562596049174106e-05  -1.0297321420856465e-05  -2.8122088609665814e-06  -1.9236749078080872e-05  -1.0297321420856409e-05  -5.1304227096968491e-06  -1.9185536715784829e-05  -1.5022628553263009e-05  -1.0373933881712346e-05  -7.3906896138521894e-06  -5.6522760136801727e-06  -4.2000486244751057e-06  -2.9891505067268533e-06  -1.2345775180748566e-07  -6.4232297420581427e-07  -9.9021295704306925e-07  -1.4541691933684241e-06  -1.4841400933417655e-06  -4.0996362758014666e-07  -6.4110557342280527e-07  -4.8286835676984636e-06  -1.1772279316775442e-05  -1.7537023013641531e-05  -3.3964365636930927e-06  -6.5100882929796360e-06  -7.4977707846544476e-06  -7.8243566203307314e-07  -7.2933425203517114e-07  -1.7763916517198680e-06  -5.4189447044349396e-07  -8.2286815488627260e-06  -2.4233407040959091e-06  -1.4261660591979756e-05  -5.2058226605674848e-06  -2.0845494625239222e-05  -9.6337472592066873e-06  -1.9149667485322043e-06  -1.8350367240958525e-05  -9.6337472592066347e-06  -4.4246882690549909e-06  -1.8703212675103514e-05  -1.4261660591979533e-05  -9.6748115836300166e-06  -6.9326513534470358e-06  -5.2058226605674035e-06  -3.6222952629323694e-06  0.0000000000000000e+00  -6.2669346369011652e-08  -3.2605454385762742e-07  -5.0264967469019384e-07  -9.9021295704306544e-07  -1.2247257029165616e-06  -3.7213259615447862e-07  -6.0111139368439223e-07  -4.5047015928548215e-06  -1.1124220935872560e-05  -1.7061191659415120e-05  -2.8027698844213113e-06  -6.1006403789183161e-06  -7.1179728466344703e-06  -3.9717823139919239e-07  -6.8346323236385510e-07  -1.7103212019367986e-06  -4.9188899346557398e-07  -7.7756965407749222e-06  -2.0899890305471948e-06  -1.3476562955105437e-05  -4.7254345787494653e-06  -2.0070175058460880e-05  -9.0278387765014937e-06  -9.7207111495147255e-07  -1.7420833404809576e-05  -9.0278387765014446e-06  -3.6512924048182508e-06  -1.8195739142756754e-05  -1.3476562955105224e-05  -9.0256771934470187e-06  -6.5001707827147985e-06  -4.7254345787493925e-06  -1.1821958423186001e-06  -1.5478992258453771e-06  0.0000000000000000e+00  0.0000000000000000e+00  0.0000000000000000e+00  -5.0264967469019204e-07  -9.4327818540375180e-07  -3.3075793824969559e-07  -5.6212607443466217e-07  -4.2073793235683542e-06  -1.0467352563530946e-05  -1.6551672157731517e-05  -2.1586806616251237e-06  -5.7225529672538026e-06  -6.7261318246730466e-06  0.0000000000000000e+00  -6.4110557342279002e-07  -1.6392990947385954e-06  -4.3719951169999967e-07  -7.3165534547103052e-06  -1.7246776743032042e-06  -1.2680792354709225e-05  -4.2000486244751709e-06  -1.9236749078080973e-05  -8.4683381365806091e-06  0.0000000000000000e+00  -1.6461824806176348e-05  -8.4683381365805650e-06  -2.8122088609665661e-06  -1.7652337244117038e-05  -1.2680792354709023e-05  -8.4299585271408453e-06  -6.0785996133701779e-06  -5.1071786014830754e-06  -1.1501193691239352e-06  -1.5108797863310399e-06  -8.0533722667027805e-06  -1.2415177234226068e-05  -1.2415177234226023e-05  0.0000000000000000e+00  -6.4232297420580750e-07  -2.8525929578943406e-07  -5.2270126826623477e-07  -3.9362497653781364e-06  -9.8137308352322919e-06  -1.6001217674155212e-05  -1.4699483189491074e-06  -5.3655621354427063e-06  -6.3289639430481234e-06  -1.8176778616641736e-06  -6.0111139368437794e-07  -1.5637642454098667e-06  -3.7705890140383085e-07  -6.8596797337544453e-06  -1.3283389277688115e-06  -1.1888954937867170e-05  -3.6222952629324261e-06  -1.8350367240958623e-05  -7.9400565998722976e-06  -2.4009634908910552e-05  -1.5489779021708321e-05  -7.9400565998722570e-06  -1.9149667485321941e-06  -1.7065278239502425e-05  -1.1888954937866982e-05  -7.8867199086919878e-06  -5.3647029964676324e-06  -4.8950999663681341e-06  -1.1157719296524783e-06  -1.4728962962508615e-06  -7.8607684314299638e-06  -1.2118256804906003e-05  -1.2118256804905957e-05  -8.0533722667026924e-06  -3.2605454385762393e-07  -2.3539852680790485e-07  -4.8141493806421456e-07  -3.6886818088273081e-06  -9.1753554424759175e-06  -1.5406074340879204e-05  -7.4617186038197770e-07  -5.0175764625670331e-06  -5.9337591072802212e-06  -1.7742064169261112e-06  -5.6212607443464883e-07  -1.4845521098279700e-06  -3.1115238388510543e-07  -6.4134630178346253e-06  -9.0452914531529312e-07  -1.1115587866225435e-05  -2.9891505067269003e-06  -1.7420833404809664e-05  -7.4251010614160251e-06  -2.3435422316494335e-05  -1.4522537680243659e-05  -7.4251010614159853e-06  -9.7207111495146725e-07  -1.6430558633684914e-05  -1.1115587866225261e-05  -2.6203189289582960e-06  -5.0297103206140452e-06  -4.6695458624249222e-06  -1.0786650044141784e-06  -1.4329322590972956e-06  -7.6631488574313888e-06  -1.1813604051389485e-05  -1.1813604051389439e-05  -7.8607684314298791e-06  0.0000000000000000e+00  -1.8130287842028290e-07  -4.3699045153550942e-07  -3.4600756181767503e-06  -8.5631575987693034e-06  -1.4766327922427304e-05  0.0000000000000000e+00  -4.6656678988681938e-06  -5.5477727923680020e-06  -1.7296029001889193e-06  -5.2270126826622228e-07  -1.4028282218048481e-06  -2.3964815579214615e-07  -5.9855440936222476e-06  -4.5915505084706316e-07  -1.0373933881712508e-05  -2.3022301721679064e-06  -1.6461824806176436e-05  -6.9043403576509184e-06  -2.2846256229862798e-05  -1.3577858143877983e-05  -6.9043403576508803e-06  0.0000000000000000e+00  -1.5748269894419753e-05  -3.2905052260689930e-07  -2.4514618188930725e-06  -4.7025316609094681e-06  -4.4330110388119550e-06  -1.0385455398029250e-06  -1.3901388279480293e-06  -7.4552249415173948e-06  -1.1493065998283512e-05  -1.1493065998283470e-05  -7.6631488574313041e-06  -1.5478992258453527e-06  -1.2345775180748372e-07  -3.8840473067478447e-07  -3.2442252310976802e-06  -7.9860675105197163e-06  -1.4085932039614350e-05  -1.6224719097736211e-05  -4.2971432420894313e-06  -5.1776144304217066e-06  -1.6826736528685138e-06  -4.8141493806420323e-07  -1.3199933432058141e-06  -1.6318782579018366e-07  -5.5821650679102031e-06  0.0000000000000000e+00  -9.6748115836301691e-06  -1.5676980072005765e-06  -1.5489779021708402e-05  -6.3589908566278618e-06  -2.2226369660038315e-05  -1.2671916621508646e-05  -6.3589908566278279e-06  -1.9655618996602687e-05  0.0000000000000000e+00  -2.9868607116799577e-07  -2.2972786676093706e-06  -4.3887694572738990e-06  -4.1889758881811607e-06  -9.9541931732812162e-07  -1.3439073569917811e-06  -7.2325803236635841e-06  -1.1149834330932150e-05  -1.1149834330932109e-05  -7.4552249415173135e-06  -1.5108797863310162e-06  -6.2669346369010672e-08  -3.3497626856632450e-07  -3.0338197094569149e-06  -7.4502399113370157e-06  -1.3372412235210032e-05  -1.5836689956531797e-05  -3.9006071835331114e-06  -4.8286835676983781e-06  -1.6324218851010164e-06  -4.3699045153549909e-07  -1.2375678850880778e-06  -8.2837037188221843e-08  -5.2076280254121478e-06  -1.9655618996602999e-05  -9.0256771934471627e-06  -7.9579133733508696e-07  -1.4522537680243735e-05  -5.7721895729320440e-06  -2.1562596049173988e-05  -1.1817928195271014e-05  -5.7721895729320126e-06  -6.9402634128325120e-07  -1.2423957027935471e-06  -2.6547738656685034e-07  -2.1549047377658720e-06  -4.0930005981594424e-06  -3.9416232160875434e-06  -9.4955285623227439e-07  -1.2939225670625695e-06  -6.9920483563163014e-06  -1.0779027306716914e-05  -1.0779027306716873e-05  -7.2325803236635045e-06  -1.4728962962508385e-06  0.0000000000000000e+00  -2.7642541820732693e-07  -2.8210422571467993e-06  -6.9585042898963262e-06  -1.2636267297706983e-05  -1.5438555861874589e-05  -3.4669276577206845e-06  -4.5047015928547419e-06  -1.5781328720527365e-06  -3.8840473067477531e-07  -1.1570650775452543e-06  0.0000000000000000e+00  -4.8639107446556900e-06  -1.9185536715785134e-05  -8.4299585271409774e-06  0.0000000000000000e+00  -1.3577858143878056e-05  -5.1304227096968762e-06  -2.0845494625239111e-05  -1.1025000752090217e-05  -1.6146915978570009e-06  -6.5887058887075917e-07  -1.2126826621740458e-06  -2.2895865399580861e-07  -2.0204750104726911e-06  -3.8183794932068232e-06  -3.6954931117307482e-06  -9.0145346413347760e-07  -1.2401916613356065e-06  -6.7319887127351575e-06  -1.0378116177862384e-05  -1.0378116177862347e-05  -6.9920483563162260e-06  -1.4329322590972729e-06  -1.8176778616642168e-06  -2.1290160422463571e-07  -2.5982180758917203e-06  -6.5100882929796944e-06  -1.1890114881266568e-05  -1.5019662134168264e-05  -2.9900214864917894e-06  -4.2073793235682797e-06  -1.5194363855132837e-06  -3.3497626856631661e-07  -1.0798634094526787e-06  -1.1340883365277910e-05  -4.5504733600376818e-06  -1.8703212675103809e-05  -7.8867199086921132e-06  -2.4009634908910680e-05  -1.2671916621508714e-05  -4.4246882690550138e-06  -2.0070175058460772e-05  -4.7134826117450804e-07  -1.5131365840320976e-06  -6.2260007612140083e-07  -1.1821958423186113e-06  -1.8893873274621776e-07  -1.8894362976035482e-06  -3.5663563053184379e-06  -3.4551042212834843e-06  -8.5182887940304547e-07  -1.1830466957961307e-06  -6.4524388694241235e-06  -9.9471587186056834e-06  -9.9471587186056461e-06  -6.7319887127350846e-06  -1.3901388279480075e-06  -1.7742064169261537e-06  -1.4497482689077756e-07  -2.3584571237799809e-06  -6.1006403789183720e-06  -1.1147650405058899e-05  -1.4571111357714479e-05  -2.4673925212368818e-06  -3.9362497653780669e-06  -1.4563408840773125e-06  -2.7642541820732042e-07  -1.0070890311850047e-06  -1.1069655665974187e-05  -4.2642741963077126e-06  -1.8195739142757042e-05  -7.3906896138523054e-06  -2.3435422316494460e-05  -1.1817928195271077e-05  -3.6512924048182699e-06  -3.0756654710086569e-06  -3.2096344608537313e-07  -1.4193598886332750e-06  -5.8583648602559233e-07  -1.1501193691239462e-06  -1.4551975560970052e-07  -1.7569203671238470e-06  -3.3365351898337034e-06  -3.2245728410756575e-06  -8.0152967618219789e-07  -1.1231197243602569e-06  -6.1551264391488521e-06  -9.4888182379268697e-06  -9.4888182379268358e-06  -6.4524388694240532e-06  -1.3439073569917603e-06  -1.7296029001889604e-06  -7.3591795640124079e-08  -2.0962378027963715e-06  -5.7225529672538543e-06  -1.0422504604229343e-05  -1.4086523848905167e-05  -1.9003745365746424e-06  -3.6886818088272433e-06  -1.3892362967551383e-06  -2.1290160422463065e-07  -9.3951809003878145e-07  -1.0791364725832246e-05  -3.9999956462916854e-06  -1.7652337244117316e-05  -6.9326513534471450e-06  -2.2846256229862920e-05  -1.1025000752090278e-05  -3.0029962666313688e-07  -2.9198683097618607e-06  -1.6292674279280236e-07  -1.3308157597834448e-06  -5.4925460400983167e-07  -1.1157719296524886e-06  -9.9091321812893149e-08  -1.6181474220029573e-06  -3.1266859048181963e-06  -3.0072617611428281e-06  -7.5147908229524261e-07  -1.0612925173645973e-06  -5.8433398565788024e-06  -9.0081642269524505e-06  -9.0081642269524183e-06  -6.1551264391487852e-06  -1.2939225670625494e-06  -1.6826736528685539e-06  0.0000000000000000e+00  -1.8078819894610156e-06  -5.3655621354427546e-06  -9.7270945043444629e-06  -1.3562594924967695e-05  -1.2940553946078272e-06  -3.4600756181766894e-06  -1.3188648362124929e-06  -1.4497482689077414e-07  -8.7750740080487190e-07  -1.0498563052056165e-05  -3.7504633516704436e-06  -1.7065278239502693e-05  -6.5001707827149010e-06  -2.2226369660038437e-05  -8.6406464868128786e-07  -2.8082357457189355e-07  -2.7591309471529510e-06  0.0000000000000000e+00  -1.2445051727560928e-06  -5.1352602846145583e-07  -1.0786650044141884e-06  -5.0300513964801260e-08  -1.4688264045885768e-06  -2.9329094309703419e-06  -2.8054886296905201e-06  -7.0259596512372201e-07  -9.9862480404980960e-07  -5.5216667748737560e-06  -8.5122690679319543e-06  -8.5122690679319238e-06  -5.8433398565787388e-06  -1.2401916613355872e-06  -1.6324218851010552e-06  -9.8100891827628093e-06  -1.4918804163206182e-06  -5.0175764625670780e-06  -9.0715641393852815e-06  -1.2999400087906637e-05  -6.5688548963556259e-07  -3.2442252310976230e-06  -1.2462619538490353e-06  -7.3591795640122345e-08  -8.2095956530163322e-07  -1.0185031458163916e-05  -3.5072255547571278e-06  -1.6430558633685172e-05  -6.0785996133702736e-06  -2.3709961118474817e-07  -8.4062001662478857e-07  -2.6112796624033463e-07  -2.5962084499478395e-06  -4.0242031176375970e-06  -1.1572215944932289e-06  -4.7926255722240685e-07  -1.0385455398029345e-06  0.0000000000000000e+00  -1.3055185120809902e-06  -2.7499453267706793e-06  -2.6203189289582816e-06  -6.5571737414788904e-07  -9.3626683278789978e-07  -5.1956207274307393e-06  -8.0096324914184933e-06  -8.0096324914184662e-06  -5.5216667748736950e-06  -1.1830466957961123e-06  -1.5781328720527740e-06  -9.5754718400651923e-06  -1.1490395348077221e-06  -4.6656678988682345e-06  -8.4629048177309411e-06  -1.2400419871205874e-05  0.0000000000000000e+00  -3.0338197094568611e-06  -1.1726720758831780e-06  0.0000000000000000e+00  -7.6932582910424104e-07  -9.8463106221006409e-06  -3.2612457043751352e-06  -1.5748269894420000e-05  -5.5283067012557105e-07  -2.2182057217167621e-07  -8.1551553972035356e-07  -2.4050238889107675e-07  -2.4340912150712060e-06  -3.9279605836151181e-06  -1.0658167409606743e-06  -4.4696399582702260e-07  -9.9541931732813094e-07  -6.1096374734667497e-06  -1.1259330414472243e-06  -2.5715965255171361e-06  -2.4514618188930590e-06  -6.1152713322926138e-07  -8.7536341928077828e-07  -4.8711861983713657e-06  -7.5094802513651596e-06  -7.5094802513651333e-06  -5.1956207274306826e-06  -1.1231197243602394e-06  -1.5194363855133199e-06  -9.3347446538650517e-06  -7.8243566203308690e-07  -4.2971432420894694e-06  -7.9043306229043078e-06  -1.1772279316775335e-05  -9.8100891827626382e-06  -2.8210422571467494e-06  -1.0994459239680488e-06  -2.0460303667436431e-06  -7.2164683257498614e-07  -9.4800906103841071e-06  -3.0036514049249736e-06  -7.9246249074771253e-07  -5.3960921409492598e-07  -2.0786930661518229e-07  -7.8839416002002347e-07  -2.1830907021597589e-07  -2.2757555156807773e-06  -3.8292117266823097e-06  -9.6746424354697687e-07  -4.1697481222825854e-07  -9.4955285623228318e-07  -5.9635198508676391e-06  -9.2913003415903904e-07  -2.3912371734556281e-06  -2.2972786676093579e-06  -5.7049653648040036e-07  -8.1695744241120714e-07  -4.5543194068540354e-06  -7.0209945281118793e-06  -7.0209945281118548e-06  -4.8711861983713123e-06  -1.0612925173645807e-06  -1.4563408840773472e-06  -9.0814653950905564e-06  -3.9717823139919943e-07  -3.9006071835331461e-06  -7.3949642205044756e-06  -1.1124220935872459e-05  -9.5754718400650246e-06  -2.5982180758916745e-06  -1.0279278402431771e-06  -1.9970976609566779e-06  -6.7662823606587984e-07  -9.0864241980067558e-06  -1.7582049133192703e-06  -7.4139507122716399e-07  -5.2604344836281595e-07  -1.9498659869910502e-07  -7.5907092113380361e-07  -1.9403690703802163e-07  -2.1239126112573102e-06  -3.7253138758264621e-06  -8.5989908390896077e-07  -3.8945336716658123e-07  -9.0145346413348597e-07  -5.8135970713403300e-06  -7.1561174109315954e-07  -2.2023617803231419e-06  -2.1549047377658605e-06  -5.3284224987560766e-07  -7.6190087745846142e-07  -4.2504462176454800e-06  -6.5525399011785191e-06  -6.5525399011784963e-06  -4.5543194068539854e-06  -9.9862480404979414e-07  -1.3892362967551715e-06  -8.8102543440084404e-06  0.0000000000000000e+00  -3.4669276577207154e-06  -6.9298625907909699e-06  -1.0467352563530850e-05  -9.3347446538648857e-06  -2.3584571237799398e-06  -9.5934246377158651e-07  -1.9468906624380848e-06  -6.3274524187618750e-07  -1.8282272211116796e-07  -1.7104996087039166e-06  -6.9476549390842587e-07  -5.1177033221181919e-07  -1.8282272211116764e-07  -7.2755004875570616e-07  -1.6734543621758978e-07  -1.9807774532122165e-06  -3.6140602126874841e-06  -7.4161245660163797e-07  -3.6435643359939031e-07  -8.5182887940305352e-07  -5.6558569711402697e-06  -4.8729406555586637e-07  -1.9991300492208343e-06  -2.0204750104726801e-06  -4.9850513104617722e-07  -7.1078090915791884e-07  -3.9639992669092612e-06  -6.1109497767163099e-06  -6.1109497767162887e-06  -4.2504462176454343e-06  -9.3626683278788527e-07  -1.3188648362125245e-06  -8.5172540985412938e-06  -1.6224719097736356e-05  -2.9900214864918165e-06  -6.5003841020741084e-06  -9.8137308352322021e-06  -9.0814653950903972e-06  -2.0962378027963347e-06  -8.9469025800591325e-07  -1.8940657548287337e-06  -4.2252395162845741e-07  -1.7096568153184609e-07  -1.6594168399469131e-06  -6.5170737689281033e-07  -4.9648670080726132e-07  -1.7096568153184580e-07  -6.9402634128325458e-07  -1.3809495338137879e-07  -1.8478765948270543e-06  -3.4938683898293144e-06  -6.1198524403313442e-07  -3.4144046456822205e-07  -8.0152967618220552e-07  -5.4869491080169548e-06  -2.4735911784222867e-07  -1.7768616353586193e-06  -1.8894362976035378e-06  -4.6715196395075819e-07  -6.6386748137137344e-07  -3.6980335450377527e-06  -5.7009337652975842e-06  -5.7009337652975638e-06  -3.9639992669092180e-06  -8.7536341928076473e-07  -1.2462619538490652e-06  -8.2004665203839179e-06  -1.5836689956531939e-05  -2.4673925212369034e-06  -6.0948697204737770e-06  -9.1753554424758345e-06  -8.8102543440082845e-06  -1.8078819894609838e-06  -8.3466074631846929e-07  -2.1729504860375689e-08  -4.0112109333876689e-07  -1.5897497488721136e-07  -1.6042300629876963e-06  -6.1105182334779173e-07  -4.7997517690254782e-07  -1.5897497488721113e-07  -6.5887058887076235e-07  -1.0636010718873367e-07  -1.7259118317433488e-06  -3.3639187496272929e-06  -4.7134826117450709e-07  -3.2027967922964795e-07  -7.5147908229524959e-07  -5.3044711257997854e-06  0.0000000000000000e+00  -1.5324388025269969e-06  -1.7569203671238372e-06  -4.3820020381841402e-07  -6.2108690869688102e-07  -3.4539535093585640e-06  -5.3246569955247140e-06  -5.3246569955246945e-06  -3.6980335450377125e-06  -8.1695744241119454e-07  -1.1726720758832060e-06  -7.8599372609521522e-06  -1.5438555861874728e-05  -1.9003745365746593e-06  -5.6995845132149402e-06  -8.5631575987692255e-06  -8.5172540985411430e-06  -1.4918804163205918e-06  -7.4438481720952919e-08  -1.4796653209956176e-08  -3.7903956780745470e-07  -1.4641810214645460e-07  -1.5445629272440112e-06  -5.7142181356652515e-07  -4.6212315885688958e-07  -1.4641810214645439e-07  -6.2260007612140379e-07  -7.2425654958906840e-08  -1.6146915978570041e-06  -3.2242300187786505e-06  -3.2096344608537249e-07  -3.0029962666313540e-07  -7.0259596512372857e-07  -5.1071786014831016e-06  -8.3154549951559512e-06  -1.2645822304925091e-06  -1.6181474220029484e-06  -4.1086389847426293e-07  -5.8202403769235610e-07  -3.2313757912630859e-06  -4.9815284616594426e-06  -4.9815284616594239e-06  -3.4539535093585267e-06  -7.6190087745844967e-07  -1.0994459239680751e-06  -7.4977707846545781e-06  -1.5019662134168400e-05  -1.2940553946078387e-06  -5.2998432009122533e-06  -7.9860675105196434e-06  -8.2004665203837756e-06  -1.4179046218318121e-07  -6.9756720169515351e-08  -7.5110438311145933e-09  -3.5665785627960623e-07  -1.3290678687128107e-07  -1.4804240311881879e-06  -5.3134504918065587e-07  -4.4293321927715494e-07  -1.3290678687128086e-07  -5.8583648602559508e-07  -3.6764548116022418e-08  -1.5131365840321005e-06  -3.0756654710086510e-06  -1.6292674279280204e-07  -2.8082357457189218e-07  -6.5571737414789529e-07  -4.8950999663681604e-06  -8.1165832093914452e-06  -9.7397550229585546e-07  -1.4688264045885688e-06  -3.8421715642528803e-07  -5.4595307656865682e-07  -3.0281404405678115e-06  -4.6682183580678977e-06  -4.6682183580678807e-06  -3.2313757912630516e-06  -7.1078090915790783e-07  -1.0279278402432017e-06  -7.1179728466345956e-06  -1.4571111357714609e-05  -6.5688548963556841e-07  -4.8812272730466547e-06  -7.4502399113369479e-06  0.0000000000000000e+00  -1.3460809735571955e-07  -6.5433544873650073e-08  0.0000000000000000e+00  -3.3438676881810481e-07  -1.181298689