<?xml version="1.0"?>
<VTKFile type="UnstructuredGrid"  version="0.1"  >
<UnstructuredGrid>
<Piece  NumberOfPoints="1089" NumberOfCells="2048">
<Points>
<DataArray  type="Float64"  NumberOfComponents="3"  format="ascii">0 0 0  0.03125 0 0  0.0625 0 0  0.09375 0 0  0.125 0 0  0.15625 0 0  0.1875 0 0  0.21875 0 0  0.25 0 0  0.28125 0 0  0.3125 0 0  0.34375 0 0  0.375 0 0  0.40625 0 0  0.4375 0 0  0.46875 0 0  0.5 0 0  0.53125 0 0  0.5625 0 0  0.59375 0 0  0.625 0 0  0.65625 0 0  0.6875 0 0  0.71875 0 0  0.75 0 0  0.78125 0 0  0.8125 0 0  0.84375 0 0  0.875 0 0  0.90625 0 0  0.9375 0 0  0.96875 0 0  1 0 0  0 0.03125 0  0.03125 0.03125 0  0.0625 0.03125 0  0.09375 0.03125 0  0.125 0.03125 0  0.15625 0.03125 0  0.1875 0.03125 0  0.21875 0.03125 0  0.25 0.03125 0  0.28125 0.03125 0  0.3125 0.03125 0  0.34375 0.03125 0  0.375 0.03125 0  0.40625 0.03125 0  0.4375 0.03125 0  0.46875 0.03125 0  0.5 0.03125 0  0.53125 0.03125 0  0.5625 0.03125 0  0.59375 0.03125 0  0.625 0.03125 0  0.65625 0.03125 0  0.6875 0.03125 0  0.71875 0.03125 0  0.75 0.03125 0  0.78125 0.03125 0  0.8125 0.03125 0  0.84375 0.03125 0  0.875 0.03125 0  0.90625 0.03125 0  0.9375 0.03125 0  0.96875 0.03125 0  1 0.03125 0  0 0.0625 0  0.03125 0.0625 0  0.0625 0.0625 0  0.09375 0.0625 0  0.125 0.0625 0  0.15625 0.0625 0  0.1875 0.0625 0  0.21875 0.0625 0  0.25 0.0625 0  0.28125 0.0625 0  0.3125 0.0625 0  0.34375 0.0625 0  0.375 0.0625 0  0.40625 0.0625 0  0.4375 0.0625 0  0.46875 0.0625 0  0.5 0.0625 0  0.53125 0.0625 0  0.5625 0.0625 0  0.59375 0.0625 0  0.625 0.0625 0  0.65625 0.0625 0  0.6875 0.0625 0  0.71875 0.0625 0  0.75 0.0625 0  0.78125 0.0625 0  0.8125 0.0625 0  0.84375 0.0625 0  0.875 0.0625 0  0.90625 0.0625 0  0.9375 0.0625 0  0.96875 0.0625 0  1 0.0625 0  0 0.09375 0  0.03125 0.09375 0  0.0625 0.09375 0  0.09375 0.09375 0  0.125 0.09375 0  0.15625 0.09375 0  0.1875 0.09375 0  0.21875 0.09375 0  0.25 0.09375 0  0.28125 0.09375 0  0.3125 0.09375 0  0.34375 0.09375 0  0.375 0.09375 0  0.40625 0.09375 0  0.4375 0.09375 0  0.46875 0.09375 0  0.5 0.09375 0  0.53125 0.09375 0  0.5625 0.09375 0  0.59375 0.09375 0  0.625 0.09375 0  0.65625 0.09375 0  0.6875 0.09375 0  0.71875 0.09375 0  0.75 0.09375 0  0.78125 0.09375 0  0.8125 0.09375 0  0.84375 0.09375 0  0.875 0.09375 0  0.90625 0.09375 0  0.9375 0.09375 0  0.96875 0.09375 0  1 0.09375 0  0 0.125 0  0.03125 0.125 0  0.0625 0.125 0  0.09375 0.125 0  0.125 0.125 0  0.15625 0.125 0  0.1875 0.125 0  0.21875 0.125 0  0.25 0.125 0  0.28125 0.125 0  0.3125 0.125 0  0.34375 0.125 0  0.375 0.125 0  0.40625 0.125 0  0.4375 0.125 0  0.46875 0.125 0  0.5 0.125 0  0.53125 0.125 0  0.5625 0.125 0  0.59375 0.125 0  0.625 0.125 0  0.65625 0.125 0  0.6875 0.125 0  0.71875 0.125 0  0.75 0.125 0  0.78125 0.125 0  0.8125 0.125 0  0.84375 0.125 0  0.875 0.125 0  0.90625 0.125 0  0.9375 0.125 0  0.96875 0.125 0  1 0.125 0  0 0.15625 0  0.03125 0.15625 0  0.0625 0.15625 0  0.09375 0.15625 0  0.125 0.15625 0  0.15625 0.15625 0  0.1875 0.15625 0  0.21875 0.15625 0  0.25 0.15625 0  0.28125 0.15625 0  0.3125 0.15625 0  0.34375 0.15625 0  0.375 0.15625 0  0.40625 0.15625 0  0.4375 0.15625 0  0.46875 0.15625 0  0.5 0.15625 0  0.53125 0.15625 0  0.5625 0.15625 0  0.59375 0.15625 0  0.625 0.15625 0  0.65625 0.15625 0  0.6875 0.15625 0  0.71875 0.15625 0  0.75 0.15625 0  0.78125 0.15625 0  0.8125 0.15625 0  0.84375 0.15625 0  0.875 0.15625 0  0.90625 0.15625 0  0.9375 0.15625 0  0.96875 0.15625 0  1 0.15625 0  0 0.1875 0  0.03125 0.1875 0  0.0625 0.1875 0  0.09375 0.1875 0  0.125 0.1875 0  0.15625 0.1875 0  0.1875 0.1875 0  0.21875 0.1875 0  0.25 0.1875 0  0.28125 0.1875 0  0.3125 0.1875 0  0.34375 0.1875 0  0.375 0.1875 0  0.40625 0.1875 0  0.4375 0.1875 0  0.46875 0.1875 0  0.5 0.1875 0  0.53125 0.1875 0  0.5625 0.1875 0  0.59375 0.1875 0  0.625 0.1875 0  0.65625 0.1875 0  0.6875 0.1875 0  0.71875 0.1875 0  0.75 0.1875 0  0.78125 0.1875 0  0.8125 0.1875 0  0.84375 0.1875 0  0.875 0.1875 0  0.90625 0.1875 0  0.9375 0.1875 0  0.96875 0.1875 0  1 0.1875 0  0 0.21875 0  0.03125 0.21875 0  0.0625 0.21875 0  0.09375 0.21875 0  0.125 0.21875 0  0.15625 0.21875 0  0.1875 0.21875 0  0.21875 0.21875 0  0.25 0.21875 0  0.28125 0.21875 0  0.3125 0.21875 0  0.34375 0.21875 0  0.375 0.21875 0  0.40625 0.21875 0  0.4375 0.21875 0  0.46875 0.21875 0  0.5 0.21875 0  0.53125 0.21875 0  0.5625 0.21875 0  0.59375 0.21875 0  0.625 0.21875 0  0.65625 0.21875 0  0.6875 0.21875 0  0.71875 0.21875 0  0.75 0.21875 0  0.78125 0.21875 0  0.8125 0.21875 0  0.84375 0.21875 0  0.875 0.21875 0  0.90625 0.21875 0  0.9375 0.21875 0  0.96875 0.21875 0  1 0.21875 0  0 0.25 0  0.03125 0.25 0  0.0625 0.25 0  0.09375 0.25 0  0.125 0.25 0  0.15625 0.25 0  0.1875 0.25 0  0.21875 0.25 0  0.25 0.25 0  0.28125 0.25 0  0.3125 0.25 0  0.34375 0.25 0  0.375 0.25 0  0.40625 0.25 0  0.4375 0.25 0  0.46875 0.25 0  0.5 0.25 0  0.53125 0.25 0  0.5625 0.25 0  0.59375 0.25 0  0.625 0.25 0  0.65625 0.25 0  0.6875 0.25 0  0.71875 0.25 0  0.75 0.25 0  0.78125 0.25 0  0.8125 0.25 0  0.84375 0.25 0  0.875 0.25 0  0.90625 0.25 0  0.9375 0.25 0  0.96875 0.25 0  1 0.25 0  0 0.28125 0  0.03125 0.28125 0  0.0625 0.28125 0  0.09375 0.28125 0  0.125 0.28125 0  0.15625 0.28125 0  0.1875 0.28125 0  0.21875 0.28125 0  0.25 0.28125 0  0.28125 0.28125 0  0.3125 0.28125 0  0.34375 0.28125 0  0.375 0.28125 0  0.40625 0.28125 0  0.4375 0.28125 0  0.46875 0.28125 0  0.5 0.28125 0  0.53125 0.28125 0  0.5625 0.28125 0  0.59375 0.28125 0  0.625 0.28125 0  0.65625 0.28125 0  0.6875 0.28125 0  0.71875 0.28125 0  0.75 0.28125 0  0.78125 0.28125 0  0.8125 0.28125 0  0.84375 0.28125 0  0.875 0.28125 0  0.90625 0.28125 0  0.9375 0.28125 0  0.96875 0.28125 0  1 0.28125 0  0 0.3125 0  0.03125 0.3125 0  0.0625 0.3125 0  0.09375 0.3125 0  0.125 0.3125 0  0.15625 0.3125 0  0.1875 0.3125 0  0.21875 0.3125 0  0.25 0.3125 0  0.28125 0.3125 0  0.3125 0.3125 0  0.34375 0.3125 0  0.375 0.3125 0  0.40625 0.3125 0  0.4375 0.3125 0  0.46875 0.3125 0  0.5 0.3125 0  0.53125 0.3125 0  0.5625 0.3125 0  0.59375 0.3125 0  0.625 0.3125 0  0.65625 0.3125 0  0.6875 0.3125 0  0.71875 0.3125 0  0.75 0.3125 0  0.78125 0.3125 0  0.8125 0.3125 0  0.84375 0.3125 0  0.875 0.3125 0  0.90625 0.3125 0  0.9375 0.3125 0  0.96875 0.3125 0  1 0.3125 0  0 0.34375 0  0.03125 0.34375 0  0.0625 0.34375 0  0.09375 0.34375 0  0.125 0.34375 0  0.15625 0.34375 0  0.1875 0.34375 0  0.21875 0.34375 0  0.25 0.34375 0  0.28125 0.34375 0  0.3125 0.34375 0  0.34375 0.34375 0  0.375 0.34375 0  0.40625 0.34375 0  0.4375 0.34375 0  0.46875 0.34375 0  0.5 0.34375 0  0.53125 0.34375 0  0.5625 0.34375 0  0.59375 0.34375 0  0.625 0.34375 0  0.65625 0.34375 0  0.6875 0.34375 0  0.71875 0.34375 0  0.75 0.34375 0  0.78125 0.34375 0  0.8125 0.34375 0  0.84375 0.34375 0  0.875 0.34375 0  0.90625 0.34375 0  0.9375 0.34375 0  0.96875 0.34375 0  1 0.34375 0  0 0.375 0  0.03125 0.375 0  0.0625 0.375 0  0.09375 0.375 0  0.125 0.375 0  0.15625 0.375 0  0.1875 0.375 0  0.21875 0.375 0  0.25 0.375 0  0.28125 0.375 0  0.3125 0.375 0  0.34375 0.375 0  0.375 0.375 0  0.40625 0.375 0  0.4375 0.375 0  0.46875 0.375 0  0.5 0.375 0  0.53125 0.375 0  0.5625 0.375 0  0.59375 0.375 0  0.625 0.375 0  0.65625 0.375 0  0.6875 0.375 0  0.71875 0.375 0  0.75 0.375 0  0.78125 0.375 0  0.8125 0.375 0  0.84375 0.375 0  0.875 0.375 0  0.90625 0.375 0  0.9375 0.375 0  0.96875 0.375 0  1 0.375 0  0 0.40625 0  0.03125 0.40625 0  0.0625 0.40625 0  0.09375 0.40625 0  0.125 0.40625 0  0.15625 0.40625 0  0.1875 0.40625 0  0.21875 0.40625 0  0.25 0.40625 0  0.28125 0.40625 0  0.3125 0.40625 0  0.34375 0.40625 0  0.375 0.40625 0  0.40625 0.40625 0  0.4375 0.40625 0  0.46875 0.40625 0  0.5 0.40625 0  0.53125 0.40625 0  0.5625 0.40625 0  0.59375 0.40625 0  0.625 0.40625 0  0.65625 0.40625 0  0.6875 0.40625 0  0.71875 0.40625 0  0.75 0.40625 0  0.78125 0.40625 0  0.8125 0.40625 0  0.84375 0.40625 0  0.875 0.40625 0  0.90625 0.40625 0  0.9375 0.40625 0  0.96875 0.40625 0  1 0.40625 0  0 0.4375 0  0.03125 0.4375 0  0.0625 0.4375 0  0.09375 0.4375 0  0.125 0.4375 0  0.15625 0.4375 0  0.1875 0.4375 0  0.21875 0.4375 0  0.25 0.4375 0  0.28125 0.4375 0  0.3125 0.4375 0  0.34375 0.4375 0  0.375 0.4375 0  0.40625 0.4375 0  0.4375 0.4375 0  0.46875 0.4375 0  0.5 0.4375 0  0.53125 0.4375 0  0.5625 0.4375 0  0.59375 0.4375 0  0.625 0.4375 0  0.65625 0.4375 0  0.6875 0.4375 0  0.71875 0.4375 0  0.75 0.4375 0  0.78125 0.4375 0  0.8125 0.4375 0  0.84375 0.4375 0  0.875 0.4375 0  0.90625 0.4375 0  0.9375 0.4375 0  0.96875 0.4375 0  1 0.4375 0  0 0.46875 0  0.03125 0.46875 0  0.0625 0.46875 0  0.09375 0.46875 0  0.125 0.46875 0  0.15625 0.46875 0  0.1875 0.46875 0  0.21875 0.46875 0  0.25 0.46875 0  0.28125 0.46875 0  0.3125 0.46875 0  0.34375 0.46875 0  0.375 0.46875 0  0.40625 0.46875 0  0.4375 0.46875 0  0.46875 0.46875 0  0.5 0.46875 0  0.53125 0.46875 0  0.5625 0.46875 0  0.59375 0.46875 0  0.625 0.46875 0  0.65625 0.46875 0  0.6875 0.46875 0  0.71875 0.46875 0  0.75 0.46875 0  0.78125 0.46875 0  0.8125 0.46875 0  0.84375 0.46875 0  0.875 0.46875 0  0.90625 0.46875 0  0.9375 0.46875 0  0.96875 0.46875 0  1 0.46875 0  0 0.5 0  0.03125 0.5 0  0.0625 0.5 0  0.09375 0.5 0  0.125 0.5 0  0.15625 0.5 0  0.1875 0.5 0  0.21875 0.5 0  0.25 0.5 0  0.28125 0.5 0  0.3125 0.5 0  0.34375 0.5 0  0.375 0.5 0  0.40625 0.5 0  0.4375 0.5 0  0.46875 0.5 0  0.5 0.5 0  0.53125 0.5 0  0.5625 0.5 0  0.59375 0.5 0  0.625 0.5 0  0.65625 0.5 0  0.6875 0.5 0  0.71875 0.5 0  0.75 0.5 0  0.78125 0.5 0  0.8125 0.5 0  0.84375 0.5 0  0.875 0.5 0  0.90625 0.5 0  0.9375 0.5 0  0.96875 0.5 0  1 0.5 0  0 0.53125 0  0.03125 0.53125 0  0.0625 0.53125 0  0.09375 0.53125 0  0.125 0.53125 0  0.15625 0.53125 0  0.1875 0.53125 0  0.21875 0.53125 0  0.25 0.53125 0  0.28125 0.53125 0  0.3125 0.53125 0  0.34375 0.53125 0  0.375 0.53125 0  0.40625 0.53125 0  0.4375 0.53125 0  0.46875 0.53125 0  0.5 0.53125 0  0.53125 0.53125 0  0.5625 0.53125 0  0.59375 0.53125 0  0.625 0.53125 0  0.65625 0.53125 0  0.6875 0.53125 0  0.71875 0.53125 0  0.75 0.53125 0  0.78125 0.531
[...]
<PointData  Scalars="phi"> 
<DataArray  type="Float64"  Name="phi"  format="ascii">0.0000000000000000e+00  0.0000000000000000e+00  0.0000000000000000e+00  0.0000000000000000e+00  0.0000000000000000e+00  0.0000000000000000e+00  0.0000000000000000e+00  0.0000000000000000e+00  0.0000000000000000e+00  0.0000000000000000e+00  0.0000000000000000e+00  0.0000000000000000e+00  0.0000000000000000e+00  0.0000000000000000e+00  0.0000000000000000e+00  0.0000000000000000e+00  0.0000000000000000e+00  0.0000000000000000e+00  0.0000000000000000e+00  0.0000000000000000e+00  0.0000000000000000e+00  0.0000000000000000e+00  0.0000000000000000e+00  0.0000000000000000e+00  0.0000000000000000e+00  0.0000000000000000e+00  0.0000000000000000e+00  0.0000000000000000e+00  0.0000000000000000e+00  0.0000000000000000e+00  0.0000000000000000e+00  0.0000000000000000e+00  0.0000000000000000e+00  0.0000000000000000e+00  -4.0889001602081079e-04  -8.0644557705153582e-04  -1.1838053172794627e-03  -1.5324481838222348e-03  -1.8446536282949602e-03  -2.1138164344508513e-03  -2.3346791987488686e-03  -2.5034999945352399e-03  -2.6181582427945733e-03  -2.6781986409769214e-03  -2.6848133649188394e-03  -2.6407643064402979e-03  -2.5502490305368613e-03  -2.4187160938528929e-03  -2.2526371843060427e-03  -2.0592451087927156e-03  -1.8462478932164393e-03  -1.6215301105742986e-03  -1.3928529817624118e-03  -1.1675647817992584e-03  -9.5233263108575068e-04  -7.5290587451359501e-04  -5.7391998484074692e-04  -4.1874832033338513e-04  -2.8940718345399179e-04  -1.8651754226801367e-04  -1.0932457405690439e-04  -5.5773965497241045e-05  -2.2641762619691195e-05  -5.7126424806091091e-06  -5.9383378346230123e-17  0.0000000000000000e+00  0.0000000000000000e+00  -8.0644557705153398e-04  -1.5914254323029552e-03  -2.3367213655754943e-03  -3.0252259864682455e-03  -3.6415463178339985e-03  -4.1725469850866850e-03  -4.6077869053307435e-03  -4.9398439673865356e-03  -5.1645222834848141e-03  -5.2809381812115499e-03  -5.2914841574668321e-03  -5.2016738450876166e-03  -5.0198751304114456e-03  -4.7569425585840246e-03  -4.4257638257789627e-03  -4.0407382973375663e-03  -3.6172079649178695e-03  -3.1708629577155987e-03  -2.7171445817201650e-03  -2.2706688412401075e-03  -1.8446924984637997e-03  -1.4506419842964355e-03  -1.0977229549902511e-03  -7.9262509253633854e-04  -5.3933299771220474e-04  -3.3904987101633557e-04  -1.9023628452003621e-04  -8.8761897150393498e-05  -2.8163649587242057e-05  -2.3242285068662775e-16  5.7126424803740642e-06  0.0000000000000000e+00  0.0000000000000000e+00  -1.1838053172794549e-03  -2.3367213655754848e-03  -3.4313706629084833e-03  -4.4422363951008709e-03  -5.3464420129362734e-03  -6.1245073527453377e-03  -6.7609741884853015e-03  -7.2448780512995459e-03  -7.5700511219303985e-03  -7.7352473596369944e-03  -7.7440873323810907e-03  -7.6048266611073246e-03  -7.3299583984994549e-03  -6.9356657585601918e-03  -6.4411471322498373e-03  -5.8678400317324231e-03  -5.2385743068125469e-03  -4.5766875218198238e-03  -3.9051366676133778e-03  -3.2456403603017114e-03  -2.6178843462408246e-03  -2.0388205436912329e-03  -1.5220861060251502e-03  -1.0775642355217081e-03  -7.1110289610702346e-04  -4.2440138617905258e-04  -2.1506818209673809e-04  -7.6846808520395399e-05  -5.0224205352702637e-16  2.8163649586558590e-05  2.2641762619345446e-05  0.0000000000000000e+00  0.0000000000000000e+00  -1.5324481838222166e-03  -3.0252259864682160e-03  -4.4422363951008466e-03  -5.7499250123574253e-03  -6.9182676839439784e-03  -7.9217412512760862e-03  -8.7401312290171368e-03  -9.3591435683727121e-03  -9.7707978331693646e-03  -9.9735883964613813e-03  -9.9724093151182039e-03  -9.7782474885888399e-03  -9.4076574009878556e-03  -8.8820389134832822e-03  -8.2267469206615072e-03  -7.4700679301394303e-03  -6.6421035275771147e-03  -5.7736040592072501e-03  -4.8947975705457532e-03  -4.0342590174117319e-03  -3.2178630153083835e-03  -2.4678599841429904e-03  -1.8021106099924446e-03  -1.2335072760421364e-03  -7.6960375453656799e-04  -4.1246628651081746e-04  -1.5875052339481749e-04  -8.4185371996937197e-16  7.6846808519094600e-05  8.8761897149508030e-05  5.5773965496792931e-05  0.0000000000000000e+00  0.0000000000000000e+00  -1.8446536282949247e-03  -3.6415463178339370e-03  -5.3464420129362058e-03  -6.9182676839439280e-03  -8.3203171769486908e-03  -9.5214350763549917e-03  -1.0497000754850220e-02  -1.1229673645703799e-02  -1.1709871552201580e-02  -1.1935964902181122e-02  -1.1914181087686826e-02  -1.1658224204509231e-02  -1.1188626337309777e-02  -1.0531856680605030e-02  -9.7192238890129040e-03  -8.7856147776407770e-03  -7.7681185553354721e-03  -6.7045899401615133e-03  -5.6322066199046292e-03  -4.5860765011706810e-03  -3.5979480413376483e-03  -2.6950727628318356e-03  -1.8992629723531436e-03  -1.2261799846642937e-03  -6.8487908060397131e-04  -2.7762736292934501e-04  -1.2166789506140959e-15  1.5875052339279266e-04  2.1506818209517285e-04  1.9023628451897027e-04  1.0932457405636475e-04  0.0000000000000000e+00  0.0000000000000000e+00  -2.1138164344507914e-03  -4.1725469850865757e-03  -6.1245073527452050e-03  -7.9217412512759579e-03  -9.5214350763549033e-03  -1.0887307041136895e-02  -1.1990759523794879e-02  -1.2811750514968641e-02  -1.3339351510094567e-02  -1.3571971726857750e-02  -1.3517241594283937e-02  -1.3191561608591616e-02  -1.2619335441728960e-02  -1.1831918178069443e-02  -1.0866321312351677e-02  -9.7637252717724908e-03  -8.5678573864718804e-03  -7.3232981564201917e-03  -6.0737811638373069e-03  -4.8605519658022327e-03  -3.7208487749844517e-03  -2.6865627971770578e-03  -1.7831289349163294e-03  -1.0286884645472909e-03  -4.3355460169950983e-04  -1.5876389582151851e-15  2.7762736292656382e-04  4.1246628650850128e-04  4.2440138617726088e-04  3.3904987101511470e-04  1.8651754226739541e-04  0.0000000000000000e+00  0.0000000000000000e+00  -2.3346791987487753e-03  -4.6077869053305701e-03  -6.7609741884850760e-03  -8.7401312290168939e-03  -1.0497000754850001e-02  -1.1990759523794742e-02  -1.3189327949438071e-02  -1.4070358787418032e-02  -1.4621868248974903e-02  -1.4842486822400835e-02  -1.4741321799845594e-02  -1.4337438435362931e-02  -1.3658981238683744e-02  -1.2741970598385203e-02  -1.1628822220002629e-02  -1.0366647300273181e-02  -9.0053995464503822e-03  -7.5959407814214768e-03  -6.1880997396341489e-03  -4.8287986494022408e-03  -3.5603193177129906e-03  -2.4187747978909125e-03  -1.4328445477882416e-03  -6.2282059323972541e-04  -1.9146573111288133e-15  4.3355460169601994e-04  6.8487908060091071e-04  7.6960375453401643e-04  7.1110289610504794e-04  5.3933299771085784e-04  2.8940718345330944e-04  0.0000000000000000e+00  0.0000000000000000e+00  -2.5034999945351046e-03  -4.9398439673862815e-03  -7.2448780512992007e-03  -9.3591435683723183e-03  -1.1229673645703405e-02  -1.2811750514968308e-02  -1.4070358787417830e-02  -1.4981280765451568e-02  -1.5531793474410541e-02  -1.5720942376859750e-02  -1.5559382979925408e-02  -1.5068798096354846e-02  -1.4280914724300436e-02  -1.3236159749518864e-02  -1.1982007368634714e-02  -1.0571082764947096e-02  -9.0590956987546475e-03  -7.5026839570660597e-03  -5.9572498060261551e-03  -4.4748725844460362e-03  -3.1023773721660657e-03  -1.8796333889516672e-03  -8.3814667244011781e-04  -2.1603967944145579e-15  6.2282059323565293e-04  1.0286884645435723e-03  1.2261799846610272e-03  1.2335072760394099e-03  1.0775642355195952e-03  7.9262509253489710e-04  4.1874832033265443e-04  0.0000000000000000e+00  0.0000000000000000e+00  -2.6181582427943872e-03  -5.1645222834844602e-03  -7.5700511219299101e-03  -9.7707978331687869e-03  -1.1709871552200973e-02  -1.3339351510093994e-02  -1.4621868248974445e-02  -1.5531793474410275e-02  -1.6055994823806222e-02  -1.6194128420715492e-02  -1.5958459749288549e-02  -1.5373221405283514e-02  -1.4473533950220205e-02  -1.3303932728905312e-02  -1.1916558469207847e-02  -1.0369082195097986e-02  -8.7224449651555902e-03  -7.0384998195257634e-03  -5.3776468184455316e-03  -3.7965520540427949e-03  -2.3460380175033858e-03  -1.0692258435434010e-03  -2.2931879546838822e-15  8.3814667243565805e-04  1.4328445477840260e-03  1.7831289349124714e-03  1.8992629723497475e-03  1.8021106099896057e-03  1.5220861060229478e-03  1.0977229549887476e-03  5.7391998483998430e-04  0.0000000000000000e+00  0.0000000000000000e+00  -2.6781986409766794e-03  -5.2809381812110850e-03  -7.7352473596363413e-03  -9.9735883964605938e-03  -1.1935964902180265e-02  -1.3571971726856891e-02  -1.4842486822400060e-02  -1.5720942376859143e-02  -1.6194128420715145e-02  -1.6262499905977029e-02  -1.5939977203634902e-02  -1.5253249301660813e-02  -1.4240607956035198e-02  -1.2950358914590263e-02  -1.1438872408631309e-02  -9.7683487729590436e-03  -8.0043857878146756e-03  -6.2134417265451514e-03  -4.4602918593103138e-03  -2.8055761641411587e-03  -1.3035322350334376e-03  -2.2907143133630936e-15  1.0692258435388048e-03  1.8796333889471782e-03  2.4187747978866537e-03  2.6865627971731491e-03  2.6950727628283879e-03  2.4678599841401029e-03  2.0388205436889903e-03  1.4506419842949027e-03  7.5290587451281720e-04  0.0000000000000000e+00  0.0000000000000000e+00  -2.6848133649185341e-03  -5.2914841574662422e-03  -7.7440873323802563e-03  -9.9724093151171787e-03  -1.1914181087685681e-02  -1.3517241594282754e-02  -1.4741321799844460e-02  -1.5559382979924414e-02  -1.5958459749287800e-02  -1.5939977203634489e-02  -1.5519531614138693e-02  -1.4726144593240103e-02  -1.3601020744569457e-02  -1.2195857740910620e-02  -1.0570774810628958e-02  -8.7919400991905376e-03  -6.9289887519956104e-03  -5.0523314018308743e-03  -3.2304567395896756e-03  -1.5273318492670914e-03  -2.1405943263841909e-15  1.3035322350289896e-03  2.3460380174988929e-03  3.1023773721616530e-03  3.5603193177087865e-03  3.7208487749805785e-03  3.5979480413342226e-03  3.2178630153055091e-03  2.6178843462385882e-03  1.8446924984622699e-03  9.5233263108497374e-04  0.0000000000000000e+00  0.0000000000000000e+00  -2.6407643064399250e-03  -5.2016738450868932e-03  -7.6048266611062924e-03  -9.7782474885875562e-03  -1.1658224204507774e-02  -1.3191561608590072e-02  -1.4337438435361397e-02  -1.5068798096353421e-02  -1.5373221405282307e-02  -1.5253249301659926e-02  -1.4726144593239622e-02  -1.3823103170984508e-02  -1.2587946181379529e-02  -1.1075344456362367e-02  -9.3486443359868908e-03  -7.4773791860133186e-03  -5.5345628286294427e-03  -3.5938693120201679e-03  -1.7268076292777466e-03  -1.8439143219911181e-15  1.5273318492630883e-03  2.8055761641369538e-03  3.7965520540385101e-03  4.4748725844417983e-03  4.8287986493981824e-03  4.8605519657984771e-03  4.5860765011673486e-03  4.0342590174089286e-03  3.2456403602995260e-03  2.2706688412386100e-03  1.1675647817984975e-03  0.0000000000000000e+00  0.0000000000000000e+00  -2.5502490305364172e-03  -5.0198751304105808e-03  -7.3299583984982137e-03  -9.4076574009862995e-03  -1.1188626337307991e-02  -1.2619335441727029e-02  -1.3658981238681780e-02  -1.4280914724298540e-02  -1.4473533950218501e-02  -1.4240607956033786e-02  -1.3601020744568437e-02  -1.2587946181378980e-02  -1.1247486469555340e-02  -9.6368273627898265e-03  -7.8219817425507782e-03  -5.8752088876169147e-03  -3.8722091018145474e-03  -1.8892018642926332e-03  -1.4124985499363859e-15  1.7268076292744731e-03  3.2304567395860491e-03  4.4602918593064471e-03  5.3776468184415487e-03  5.9572498060221808e-03  6.1880997396303187e-03  6.0737811638337455e-03  5.6322066199014538e-03  4.8947975705430722e-03  3.9051366676112849e-03  2.7171445817187291e-03  1.3928529817616815e-03  0.0000000000000000e+00  0.0000000000000000e+00  -2.4187160938523768e-03  -4.7569425585830168e-03  -6.9356657585587372e-03  -8.8820389134814486e-03  -1.0531856680602903e-02  -1.1831918178067120e-02  -1.2741970598382793e-02  -1.3236159749516484e-02  -1.3303932728903081e-02  -1.2950358914588296e-02  -1.2195857740909023e-02  -1.1075344456361234e-02  -9.6368273627892298e-03  -7.9395110480303711e-03  -6.0514790386973624e-03  -4.0470453871022938e-03  -2.0038773469517410e-03  -8.7253357352399209e-16  1.8892018642903345e-03  3.5938693120173889e-03  5.0523314018277084e-03  6.2134417265417071e-03  7.0384998195221621e-03  7.5026839570624271e-03  7.5959407814179449e-03  7.3232981564168862e-03  6.7045899401585521e-03  5.7736040592047417e-03  4.5766875218178583e-03  3.1708629577142482e-03  1.6215301105736107e-03  0.0000000000000000e+00  0.0000000000000000e+00  -2.2526371843054555e-03  -4.4257638257778134e-03  -6.4411471322481754e-03  -8.2267469206594012e-03  -9.7192238890104424e-03  -1.0866321312348963e-02  -1.1628822219999779e-02  -1.1982007368631840e-02  -1.1916558469205083e-02  -1.1438872408628774e-02  -1.0570774810626769e-02  -9.3486443359851457e-03  -7.8219817425495552e-03  -6.0514790386967301e-03  -4.1066632493339875e-03  -2.0632056316207611e-03  -2.5619131736116939e-16  2.0038773469506026e-03  3.8722091018128309e-03  5.5345628286272161e-03  6.9289887519929649e-03  8.0043857878117179e-03  8.7224449651524330e-03  9.0590956987514175e-03  9.0053995464472077e-03  8.5678573864688828e-03  7.7681185553327720e-03  6.6421035275748162e-03  5.2385743068107402e-03  3.6172079649166252e-03  1.8462478932158044e-03  0.0000000000000000e+00  0.0000000000000000e+00  -2.0592451087920625e-03  -4.0407382973362852e-03  -5.8678400317305635e-03  -7.4700679301370632e-03  -8.7856147776379963e-03  -9.7637252717694013e-03  -1.0366647300269902e-02  -1.0571082764943750e-02  -1.0369082195094706e-02  -9.7683487729559558e-03  -8.7919400991877603e-03  -7.4773791860109559e-03  -5.8752088876150594e-03  -4.0470453871010153e-03  -2.0632056316201098e-03  3.9625320122503876e-16  2.0632056316208982e-03  4.0470453871017924e-03  5.8752088876158157e-03  7.4773791860116845e-03  8.7919400991884576e-03  9.7683487729566167e-03  1.0369082195095324e-02  1.0571082764944315e-02  1.0366647300270409e-02  9.7637252717698436e-03  8.7856147776383710e-03  7.4700679301373711e-03  5.8678400317307968e-03  4.0407382973364422e-03  2.0592451087921414e-03  0.0000000000000000e+00  0.0000000000000000e+00  -1.8462478932157259e-03  -3.6172079649164687e-03  -5.2385743068105086e-03  -6.6421035275745118e-03  -7.7681185553323982e-03  -8.5678573864684457e-03  -9.0053995464467063e-03  -9.0590956987508589e-03  -8.7224449651518224e-03  -8.0043857878110622e-03  -6.9289887519922693e-03  -5.5345628286264884e-03  -3.8722091018120741e-03  -2.0038773469498285e-03  1.0415029957287906e-15  2.0632056316215496e-03  4.1066632493347716e-03  6.0514790386975003e-03  7.8219817425503047e-03  9.3486443359858673e-03  1.0570774810627459e-02  1.1438872408629432e-02  1.1916558469205703e-02  1.1982007368632405e-02  1.1628822220000281e-02  1.0866321312349405e-02  9.7192238890108189e-03  8.2267469206597083e-03  6.4411471322484079e-03  4.4257638257779713e-03  2.2526371843055344e-03  0.0000000000000000e+00  0.0000000000000000e+00  -1.6215301105735331e-03  -3.1708629577140938e-03  -4.5766875218176293e-03  -5.7736040592044416e-03  -6.7045899401581861e-03  -7.3232981564164551e-03  -7.5959407814174531e-03  -7.5026839570618790e-03  -7.0384998195215636e-03  -6.2134417265410609e-03  -5.0523314018270224e-03  -3.5938693120166694e-03  -1.8892018642895877e-03  1.6367123083513855e-15  2.0038773469525156e-03  4.0470453871030709e-03  6.0514790386981335e-03  7.9395110480311275e-03  9.6368273627899671e-03  1.1075344456361942e-02  1.2195857740909703e-02  1.2950358914588945e-02  1.3303932728903692e-02  1.3236159749517043e-02  1.2741970598383296e-02  1.1831918178067561e-02  1.0531856680603278e-02  8.8820389134817539e-03  6.9356657585589688e-03  4.7569425585831729e-03  2.4187160938524549e-03  0.0000000000000000e+00  0.0000000000000000e+00  -1.3928529817616056e-03  -2.7171445817185786e-03  -3.9051366676110619e-03  -4.8947975705427808e-03  -5.6322066199010973e-03  -6.0737811638333257e-03  -6.1880997396298390e-03  -5.9572498060216483e-03  -5.3776468184409641e-03  -4.4602918593058174e-03  -3.2304567395853795e-03  -1.7268076292737704e-03  2.1412626160960165e-15  1.8892018642933798e-03  3.8722091018153033e-03  5.8752088876176719e-03  7.8219817425515294e-03  9.6368273627905638e-03  1.1247486469556058e-02  1.2587946181379669e-02  1.3601020744569101e-02  1.4240607956034422e-02  1.4473533950219102e-02  1.4280914724299092e-02  1.3658981238682271e-02  1.2619335441727459e-02  1.1188626337308357e-02  9.4076574009865979e-03  7.3299583984984384e-03  5.0198751304107317e-03  2.5502490305364931e-03  0.0000000000000000e+00  0.0000000000000000e+00  -1.1675647817984247e-03  -2.2706688412384660e-03  -3.2456403602993118e-03  -4.0342590174086467e-03  -4.5860765011670034e-03  -4.8605519657980703e-03  -4.8287986493977175e-03  -4.4748725844412814e-03  -3.7965520540379437e-03  -2.8055761641363436e-03  -1.5273318492624406e-03  2.5233731248618571e-15  1.7268076292784513e-03  3.5938693120208891e-03  5.5345628286301712e-03  7.4773791860140489e-03  9.3486443359876159e-03  1.1075344456363077e-02  1.2587946181380217e-02  1.3823103170985175e-02  1.4726144593240263e-02  1.5253249301660539e-02  1.5373221405282888e-02  1.5068798096353956e-02  1.4337438435361871e-02  1.3191561608590485e-02  1.1658224204508124e-02  9.7782474885878407e-03  7.6048266611065075e-03  5.2016738450870372e-03  2.6407643064399978e-03  0.0000000000000000e+00  0.0000000000000000e+00  -9.5233263108490435e-04  -1.8446924984621325e-03  -2.6178843462383835e-03  -3.2178630153052398e-03  -3.5979480413338917e-03  -3.7208487749801891e-03  -3.5603193177083416e-03  -3.1023773721611568e-03  -2.3460380174983504e-03  -1.3035322350284054e-03  2.7609894682966344e-15  1.5273318492677417e-03  3.2304567395903495e-03  5.0523314018315630e-03  6.9289887519963069e-03  8.7919400991912366e-03  1.0570774810629648e-02  1.2195857740911302e-02  1.3601020744570123e-02  1.4726144593240750e-02  1.5519531614139308e-02  1.5939977203635075e-02  1.5958459749288355e-02  1.5559382979924929e-02  1.4741321799844914e-02  1.3517241594283146e-02  1.1914181087686014e-02  9.9724093151174458e-03  7.7440873323804602e-03  5.2914841574663810e-03  2.6848133649186039e-03  0.0000000000000000e+00  0.0000000000000000e+00  -7.5290587451275182e-04  -1.4506419842947726e-03  -2.0388205436887969e-03  -2.4678599841398488e-03  -2.6950727628280743e-03  -2.6865627971727800e-03  -2.4187747978862326e-03  -1.8796333889467085e-03  -1.0692258435382911e-03  2.8430078390671483e-15  1.3035322350340244e-03  2.8055761641417737e-03  4.4602918593109504e-03  6.2134417265458019e-03  8.0043857878153331e-03  9.7683487729597063e-03  1.1438872408631961e-02  1.2950358914590909e-02  1.4240607956035833e-02  1.5253249301661430e-02  1.5939977203635484e-02  1.6262499905977584e-02  1.6194128420715666e-02  1.5720942376859625e-02  1.4842486822400486e-02  1.3571971726857264e-02  1.1935964902180577e-02  9.9735883964608470e-03  7.7352473596365339e-03  5.2809381812112151e-03  2.6781986409767453e-03  0.0000000000000000e+00  0.0000000000000000e+00  -5.7391998483992347e-04  -1.0977229549886263e-03  -1.5220861060227676e-03  -1.8021106099893685e-03  -1.8992629723494558e-03  -1.7831289349121275e-03  -1.4328445477836331e-03  -8.3814667243522025e-04  2.7719897501586923e-15  1.0692258435439162e-03  2.3460380175039331e-03  3.7965520540433678e-03  5.3776468184461249e-03  7.0384998195263697e-03  8.7224449651562026e-03  1.0369082195098604e-02  1.1916558469208458e-02  1.3303932728905917e-02  1.4473533950220800e-02  1.5373221405284087e-02  1.5958459749289094e-02  1.6194128420716006e-02  1.6055994823806700e-02  1.5531793474410712e-02  1.4621868248974837e-02  1.3339351510094338e-02  1.1709871552201264e-02  9.7707978331690211e-03  7.5700511219300871e-03  5.1645222834845808e-03  2.6181582427944484e-03  0.0000000000000000e+00  0.0000000000000000e+00  -4.1874832033259870e-04  -7.9262509253478618e-04  -1.0775642355194304e-03  -1.2335072760391926e-03  -1.2261799846607598e-03  -1.0286884645432572e-03  -6.2282059323529287e-04  2.5618787467227041e-15  8.3814667244055691e-04  1.8796333889521395e-03  3.1023773721665666e-03  4.4748725844465619e-03  5.9572498060267006e-03  7.5026839570666148e-03  9.0590956987552096e-03  1.0571082764947658e-02  1.1982007368635269e-02  1.3236159749519416