<?xml version="1.0"?>
<VTKFile type="UnstructuredGrid"  version="0.1"  >
<UnstructuredGrid>
<Piece  NumberOfPoints="1089" NumberOfCells="2048">
<Points>
<DataArray  type="Float64"  NumberOfComponents="3"  format="ascii">0 0 0  0.03125 0 0  0.0625 0 0  0.09375 0 0  0.125 0 0  0.15625 0 0  0.1875 0 0  0.21875 0 0  0.25 0 0  0.28125 0 0  0.3125 0 0  0.34375 0 0  0.375 0 0  0.40625 0 0  0.4375 0 0  0.46875 0 0  0.5 0 0  0.53125 0 0  0.5625 0 0  0.59375 0 0  0.625 0 0  0.65625 0 0  0.6875 0 0  0.71875 0 0  0.75 0 0  0.78125 0 0  0.8125 0 0  0.84375 0 0  0.875 0 0  0.90625 0 0  0.9375 0 0  0.96875 0 0  1 0 0  0 0.03125 0  0.03125 0.03125 0  0.0625 0.03125 0  0.09375 0.03125 0  0.125 0.03125 0  0.15625 0.03125 0  0.1875 0.03125 0  0.21875 0.03125 0  0.25 0.03125 0  0.28125 0.03125 0  0.3125 0.03125 0  0.34375 0.03125 0  0.375 0.03125 0  0.40625 0.03125 0  0.4375 0.03125 0  0.46875 0.03125 0  0.5 0.03125 0  0.53125 0.03125 0  0.5625 0.03125 0  0.59375 0.03125 0  0.625 0.03125 0  0.65625 0.03125 0  0.6875 0.03125 0  0.71875 0.03125 0  0.75 0.03125 0  0.78125 0.03125 0  0.8125 0.03125 0  0.84375 0.03125 0  0.875 0.03125 0  0.90625 0.03125 0  0.9375 0.03125 0  0.96875 0.03125 0  1 0.03125 0  0 0.0625 0  0.03125 0.0625 0  0.0625 0.0625 0  0.09375 0.0625 0  0.125 0.0625 0  0.15625 0.0625 0  0.1875 0.0625 0  0.21875 0.0625 0  0.25 0.0625 0  0.28125 0.0625 0  0.3125 0.0625 0  0.34375 0.0625 0  0.375 0.0625 0  0.40625 0.0625 0  0.4375 0.0625 0  0.46875 0.0625 0  0.5 0.0625 0  0.53125 0.0625 0  0.5625 0.0625 0  0.59375 0.0625 0  0.625 0.0625 0  0.65625 0.0625 0  0.6875 0.0625 0  0.71875 0.0625 0  0.75 0.0625 0  0.78125 0.0625 0  0.8125 0.0625 0  0.84375 0.0625 0  0.875 0.0625 0  0.90625 0.0625 0  0.9375 0.0625 0  0.96875 0.0625 0  1 0.0625 0  0 0.09375 0  0.03125 0.09375 0  0.0625 0.09375 0  0.09375 0.09375 0  0.125 0.09375 0  0.15625 0.09375 0  0.1875 0.09375 0  0.21875 0.09375 0  0.25 0.09375 0  0.28125 0.09375 0  0.3125 0.09375 0  0.34375 0.09375 0  0.375 0.09375 0  0.40625 0.09375 0  0.4375 0.09375 0  0.46875 0.09375 0  0.5 0.09375 0  0.53125 0.09375 0  0.5625 0.09375 0  0.59375 0.09375 0  0.625 0.09375 0  0.65625 0.09375 0  0.6875 0.09375 0  0.71875 0.09375 0  0.75 0.09375 0  0.78125 0.09375 0  0.8125 0.09375 0  0.84375 0.09375 0  0.875 0.09375 0  0.90625 0.09375 0  0.9375 0.09375 0  0.96875 0.09375 0  1 0.09375 0  0 0.125 0  0.03125 0.125 0  0.0625 0.125 0  0.09375 0.125 0  0.125 0.125 0  0.15625 0.125 0  0.1875 0.125 0  0.21875 0.125 0  0.25 0.125 0  0.28125 0.125 0  0.3125 0.125 0  0.34375 0.125 0  0.375 0.125 0  0.40625 0.125 0  0.4375 0.125 0  0.46875 0.125 0  0.5 0.125 0  0.53125 0.125 0  0.5625 0.125 0  0.59375 0.125 0  0.625 0.125 0  0.65625 0.125 0  0.6875 0.125 0  0.71875 0.125 0  0.75 0.125 0  0.78125 0.125 0  0.8125 0.125 0  0.84375 0.125 0  0.875 0.125 0  0.90625 0.125 0  0.9375 0.125 0  0.96875 0.125 0  1 0.125 0  0 0.15625 0  0.03125 0.15625 0  0.0625 0.15625 0  0.09375 0.15625 0  0.125 0.15625 0  0.15625 0.15625 0  0.1875 0.15625 0  0.21875 0.15625 0  0.25 0.15625 0  0.28125 0.15625 0  0.3125 0.15625 0  0.34375 0.15625 0  0.375 0.15625 0  0.40625 0.15625 0  0.4375 0.15625 0  0.46875 0.15625 0  0.5 0.15625 0  0.53125 0.15625 0  0.5625 0.15625 0  0.59375 0.15625 0  0.625 0.15625 0  0.65625 0.15625 0  0.6875 0.15625 0  0.71875 0.15625 0  0.75 0.15625 0  0.78125 0.15625 0  0.8125 0.15625 0  0.84375 0.15625 0  0.875 0.15625 0  0.90625 0.15625 0  0.9375 0.15625 0  0.96875 0.15625 0  1 0.15625 0  0 0.1875 0  0.03125 0.1875 0  0.0625 0.1875 0  0.09375 0.1875 0  0.125 0.1875 0  0.15625 0.1875 0  0.1875 0.1875 0  0.21875 0.1875 0  0.25 0.1875 0  0.28125 0.1875 0  0.3125 0.1875 0  0.34375 0.1875 0  0.375 0.1875 0  0.40625 0.1875 0  0.4375 0.1875 0  0.46875 0.1875 0  0.5 0.1875 0  0.53125 0.1875 0  0.5625 0.1875 0  0.59375 0.1875 0  0.625 0.1875 0  0.65625 0.1875 0  0.6875 0.1875 0  0.71875 0.1875 0  0.75 0.1875 0  0.78125 0.1875 0  0.8125 0.1875 0  0.84375 0.1875 0  0.875 0.1875 0  0.90625 0.1875 0  0.9375 0.1875 0  0.96875 0.1875 0  1 0.1875 0  0 0.21875 0  0.03125 0.21875 0  0.0625 0.21875 0  0.09375 0.21875 0  0.125 0.21875 0  0.15625 0.21875 0  0.1875 0.21875 0  0.21875 0.21875 0  0.25 0.21875 0  0.28125 0.21875 0  0.3125 0.21875 0  0.34375 0.21875 0  0.375 0.21875 0  0.40625 0.21875 0  0.4375 0.21875 0  0.46875 0.21875 0  0.5 0.21875 0  0.53125 0.21875 0  0.5625 0.21875 0  0.59375 0.21875 0  0.625 0.21875 0  0.65625 0.21875 0  0.6875 0.21875 0  0.71875 0.21875 0  0.75 0.21875 0  0.78125 0.21875 0  0.8125 0.21875 0  0.84375 0.21875 0  0.875 0.21875 0  0.90625 0.21875 0  0.9375 0.21875 0  0.96875 0.21875 0  1 0.21875 0  0 0.25 0  0.03125 0.25 0  0.0625 0.25 0  0.09375 0.25 0  0.125 0.25 0  0.15625 0.25 0  0.1875 0.25 0  0.21875 0.25 0  0.25 0.25 0  0.28125 0.25 0  0.3125 0.25 0  0.34375 0.25 0  0.375 0.25 0  0.40625 0.25 0  0.4375 0.25 0  0.46875 0.25 0  0.5 0.25 0  0.53125 0.25 0  0.5625 0.25 0  0.59375 0.25 0  0.625 0.25 0  0.65625 0.25 0  0.6875 0.25 0  0.71875 0.25 0  0.75 0.25 0  0.78125 0.25 0  0.8125 0.25 0  0.84375 0.25 0  0.875 0.25 0  0.90625 0.25 0  0.9375 0.25 0  0.96875 0.25 0  1 0.25 0  0 0.28125 0  0.03125 0.28125 0  0.0625 0.28125 0  0.09375 0.28125 0  0.125 0.28125 0  0.15625 0.28125 0  0.1875 0.28125 0  0.21875 0.28125 0  0.25 0.28125 0  0.28125 0.28125 0  0.3125 0.28125 0  0.34375 0.28125 0  0.375 0.28125 0  0.40625 0.28125 0  0.4375 0.28125 0  0.46875 0.28125 0  0.5 0.28125 0  0.53125 0.28125 0  0.5625 0.28125 0  0.59375 0.28125 0  0.625 0.28125 0  0.65625 0.28125 0  0.6875 0.28125 0  0.71875 0.28125 0  0.75 0.28125 0  0.78125 0.28125 0  0.8125 0.28125 0  0.84375 0.28125 0  0.875 0.28125 0  0.90625 0.28125 0  0.9375 0.28125 0  0.96875 0.28125 0  1 0.28125 0  0 0.3125 0  0.03125 0.3125 0  0.0625 0.3125 0  0.09375 0.3125 0  0.125 0.3125 0  0.15625 0.3125 0  0.1875 0.3125 0  0.21875 0.3125 0  0.25 0.3125 0  0.28125 0.3125 0  0.3125 0.3125 0  0.34375 0.3125 0  0.375 0.3125 0  0.40625 0.3125 0  0.4375 0.3125 0  0.46875 0.3125 0  0.5 0.3125 0  0.53125 0.3125 0  0.5625 0.3125 0  0.59375 0.3125 0  0.625 0.3125 0  0.65625 0.3125 0  0.6875 0.3125 0  0.71875 0.3125 0  0.75 0.3125 0  0.78125 0.3125 0  0.8125 0.3125 0  0.84375 0.3125 0  0.875 0.3125 0  0.90625 0.3125 0  0.9375 0.3125 0  0.96875 0.3125 0  1 0.3125 0  0 0.34375 0  0.03125 0.34375 0  0.0625 0.34375 0  0.09375 0.34375 0  0.125 0.34375 0  0.15625 0.34375 0  0.1875 0.34375 0  0.21875 0.34375 0  0.25 0.34375 0  0.28125 0.34375 0  0.3125 0.34375 0  0.34375 0.34375 0  0.375 0.34375 0  0.40625 0.34375 0  0.4375 0.34375 0  0.46875 0.34375 0  0.5 0.34375 0  0.53125 0.34375 0  0.5625 0.34375 0  0.59375 0.34375 0  0.625 0.34375 0  0.65625 0.34375 0  0.6875 0.34375 0  0.71875 0.34375 0  0.75 0.34375 0  0.78125 0.34375 0  0.8125 0.34375 0  0.84375 0.34375 0  0.875 0.34375 0  0.90625 0.34375 0  0.9375 0.34375 0  0.96875 0.34375 0  1 0.34375 0  0 0.375 0  0.03125 0.375 0  0.0625 0.375 0  0.09375 0.375 0  0.125 0.375 0  0.15625 0.375 0  0.1875 0.375 0  0.21875 0.375 0  0.25 0.375 0  0.28125 0.375 0  0.3125 0.375 0  0.34375 0.375 0  0.375 0.375 0  0.40625 0.375 0  0.4375 0.375 0  0.46875 0.375 0  0.5 0.375 0  0.53125 0.375 0  0.5625 0.375 0  0.59375 0.375 0  0.625 0.375 0  0.65625 0.375 0  0.6875 0.375 0  0.71875 0.375 0  0.75 0.375 0  0.78125 0.375 0  0.8125 0.375 0  0.84375 0.375 0  0.875 0.375 0  0.90625 0.375 0  0.9375 0.375 0  0.96875 0.375 0  1 0.375 0  0 0.40625 0  0.03125 0.40625 0  0.0625 0.40625 0  0.09375 0.40625 0  0.125 0.40625 0  0.15625 0.40625 0  0.1875 0.40625 0  0.21875 0.40625 0  0.25 0.40625 0  0.28125 0.40625 0  0.3125 0.40625 0  0.34375 0.40625 0  0.375 0.40625 0  0.40625 0.40625 0  0.4375 0.40625 0  0.46875 0.40625 0  0.5 0.40625 0  0.53125 0.40625 0  0.5625 0.40625 0  0.59375 0.40625 0  0.625 0.40625 0  0.65625 0.40625 0  0.6875 0.40625 0  0.71875 0.40625 0  0.75 0.40625 0  0.78125 0.40625 0  0.8125 0.40625 0  0.84375 0.40625 0  0.875 0.40625 0  0.90625 0.40625 0  0.9375 0.40625 0  0.96875 0.40625 0  1 0.40625 0  0 0.4375 0  0.03125 0.4375 0  0.0625 0.4375 0  0.09375 0.4375 0  0.125 0.4375 0  0.15625 0.4375 0  0.1875 0.4375 0  0.21875 0.4375 0  0.25 0.4375 0  0.28125 0.4375 0  0.3125 0.4375 0  0.34375 0.4375 0  0.375 0.4375 0  0.40625 0.4375 0  0.4375 0.4375 0  0.46875 0.4375 0  0.5 0.4375 0  0.53125 0.4375 0  0.5625 0.4375 0  0.59375 0.4375 0  0.625 0.4375 0  0.65625 0.4375 0  0.6875 0.4375 0  0.71875 0.4375 0  0.75 0.4375 0  0.78125 0.4375 0  0.8125 0.4375 0  0.84375 0.4375 0  0.875 0.4375 0  0.90625 0.4375 0  0.9375 0.4375 0  0.96875 0.4375 0  1 0.4375 0  0 0.46875 0  0.03125 0.46875 0  0.0625 0.46875 0  0.09375 0.46875 0  0.125 0.46875 0  0.15625 0.46875 0  0.1875 0.46875 0  0.21875 0.46875 0  0.25 0.46875 0  0.28125 0.46875 0  0.3125 0.46875 0  0.34375 0.46875 0  0.375 0.46875 0  0.40625 0.46875 0  0.4375 0.46875 0  0.46875 0.46875 0  0.5 0.46875 0  0.53125 0.46875 0  0.5625 0.46875 0  0.59375 0.46875 0  0.625 0.46875 0  0.65625 0.46875 0  0.6875 0.46875 0  0.71875 0.46875 0  0.75 0.46875 0  0.78125 0.46875 0  0.8125 0.46875 0  0.84375 0.46875 0  0.875 0.46875 0  0.90625 0.46875 0  0.9375 0.46875 0  0.96875 0.46875 0  1 0.46875 0  0 0.5 0  0.03125 0.5 0  0.0625 0.5 0  0.09375 0.5 0  0.125 0.5 0  0.15625 0.5 0  0.1875 0.5 0  0.21875 0.5 0  0.25 0.5 0  0.28125 0.5 0  0.3125 0.5 0  0.34375 0.5 0  0.375 0.5 0  0.40625 0.5 0  0.4375 0.5 0  0.46875 0.5 0  0.5 0.5 0  0.53125 0.5 0  0.5625 0.5 0  0.59375 0.5 0  0.625 0.5 0  0.65625 0.5 0  0.6875 0.5 0  0.71875 0.5 0  0.75 0.5 0  0.78125 0.5 0  0.8125 0.5 0  0.84375 0.5 0  0.875 0.5 0  0.90625 0.5 0  0.9375 0.5 0  0.96875 0.5 0  1 0.5 0  0 0.53125 0  0.03125 0.53125 0  0.0625 0.53125 0  0.09375 0.53125 0  0.125 0.53125 0  0.15625 0.53125 0  0.1875 0.53125 0  0.21875 0.53125 0  0.25 0.53125 0  0.28125 0.53125 0  0.3125 0.53125 0  0.34375 0.53125 0  0.375 0.53125 0  0.40625 0.53125 0  0.4375 0.53125 0  0.46875 0.53125 0  0.5 0.53125 0  0.53125 0.53125 0  0.5625 0.53125 0  0.59375 0.53125 0  0.625 0.53125 0  0.65625 0.53125 0  0.6875 0.53125 0  0.71875 0.53125 0  0.75 0.53125 0  0.78125 0.531
[...]
<PointData  Scalars="phi"> 
<DataArray  type="Float64"  Name="phi"  format="ascii">0.0000000000000000e+00  0.0000000000000000e+00  0.0000000000000000e+00  0.0000000000000000e+00  0.0000000000000000e+00  0.0000000000000000e+00  0.0000000000000000e+00  0.0000000000000000e+00  0.0000000000000000e+00  0.0000000000000000e+00  0.0000000000000000e+00  0.0000000000000000e+00  0.0000000000000000e+00  0.0000000000000000e+00  0.0000000000000000e+00  0.0000000000000000e+00  0.0000000000000000e+00  0.0000000000000000e+00  0.0000000000000000e+00  0.0000000000000000e+00  0.0000000000000000e+00  0.0000000000000000e+00  0.0000000000000000e+00  0.0000000000000000e+00  0.0000000000000000e+00  0.0000000000000000e+00  0.0000000000000000e+00  0.0000000000000000e+00  0.0000000000000000e+00  0.0000000000000000e+00  0.0000000000000000e+00  0.0000000000000000e+00  0.0000000000000000e+00  0.0000000000000000e+00  -1.5074796740034969e-16  1.3997276270637105e-05  5.5155465866994514e-05  1.3526708979226494e-04  2.6419392971256179e-04  4.4937646791086568e-04  6.9543719504538851e-04  1.0038960826654353e-03  1.3730110986657595e-03  1.7977513398400096e-03  2.2699049882420417e-03  2.7783189373789762e-03  3.3092617332045717e-03  3.8468966109210137e-03  4.3738470587552456e-03  4.8718336670156414e-03  5.3223581644862399e-03  5.7074086144330545e-03  6.0101588146058704e-03  6.2156350577348574e-03  6.3113245609364528e-03  6.2877020267615557e-03  6.1386538846766392e-03  5.8617836838662915e-03  5.4585867622038813e-03  4.9344876253745885e-03  4.2987394735193220e-03  3.5641924094998272e-03  2.7469465633741608e-03  1.8659238199650059e-03  9.4243499698007036e-04  0.0000000000000000e+00  0.0000000000000000e+00  -1.3997276271231761e-05  -5.8676638509641668e-16  6.8288370853171544e-05  2.1445957564236257e-04  4.5827162893646682e-04  8.1466577461168058e-04  1.2929730195315476e-03  1.8963449150397049e-03  2.6214336498803694e-03  3.4583363439162997e-03  4.3908078851739724e-03  5.3967360352884007e-03  6.4488621965500086e-03  7.5157215589000455e-03  8.5627676867341303e-03  9.5536392903973217e-03  1.0451521235105878e-02  1.1220547990055254e-02  1.1827195863068438e-02  1.2241610577018346e-02  1.2438819022180043e-02  1.2399778287001928e-02  1.2112221182604634e-02  1.1571265230451598e-02  1.0779761238839053e-02  9.7483679141716906e-03  8.4953502693660490e-03  7.0461119327605006e-03  5.4324852551686483e-03  3.6918192751515216e-03  1.8659238199650102e-03  0.0000000000000000e+00  0.0000000000000000e+00  -5.5155465867867513e-05  -6.8288370854894842e-05  -1.2654150213031145e-15  1.8510963924964950e-04  5.1674612025366727e-04  1.0174479466752819e-03  1.7013989097291850e-03  2.5735755085493986e-03  3.6292660826440981e-03  4.8539835570666212e-03  6.2237781810246251e-03  7.7059409199773509e-03  9.2600728215424914e-03  1.0839481291738123e-02  1.2392851334941571e-02  1.3866128919963043e-02  1.5204545153773478e-02  1.6354704201229253e-02  1.7266655107771076e-02  1.7895867974792621e-02  1.8205038300693817e-02  1.8165649616566932e-02  1.7759233588062306e-02  1.6978278202453092e-02  1.5826748112350929e-02  1.4320196208937007e-02  1.2485461555049066e-02  1.0359965378105882e-02  7.9906331518140652e-03  5.4324852551686691e-03  2.7469465633741773e-03  0.0000000000000000e+00  0.0000000000000000e+00  -1.3526708979339519e-04  -2.1445957564459396e-04  -1.8510963925292640e-04  -2.1210950141424630e-15  3.8058549296793710e-04  9.8690816621650312e-04  1.8381988444635411e-03  2.9415252713466083e-03  4.2911504768910081e-03  5.8684107602443893e-03  7.6421216397976922e-03  9.5694994722187142e-03  1.1597566254322686e-02  1.3664986171770366e-02  1.5704265473367188e-02  1.7644232882033511e-02  1.9412706556992211e-02  2.0939246029569730e-02  2.2157883843246139e-02  2.3009731984731715e-02  2.3445362590412085e-02  2.3426870691567965e-02  2.2929538615396268e-02  2.1943036644645888e-02  2.0472112093536488e-02  1.8536738410752304e-02  1.6171716492378405e-02  1.3425741147589237e-02  1.0359965378105939e-02  7.0461119327605666e-03  3.5641924094998684e-03  0.0000000000000000e+00  0.0000000000000000e+00  -2.6419392971392246e-04  -4.5827162893915347e-04  -5.1674612025761214e-04  -3.8058549297304234e-04  -3.0706103527562038e-15  6.6313681654894146e-04  1.6333341810508958e-03  2.9200771357509106e-03  4.5170253174003951e-03  6.4018526912345206e-03  8.5367385364396326e-03  1.0869494591198604e-02  1.3335288423036433e-02  1.5858899753926511e-02  1.8357425540718952e-02  2.0743331897727136e-02  2.2927737134107014e-02  2.4823800798997070e-02  2.6350089047507616e-02  2.7433787042025912e-02  2.8013634476523219e-02  2.8042470456298672e-02  2.7489288497392055e-02  2.6340720772532855e-02  2.4601892211995560e-02  2.2296608815792381e-02  1.9466869563451013e-02  1.6171716492378523e-02  1.2485461555049229e-02  8.4953502693661913e-03  4.2987394735194036e-03  0.0000000000000000e+00  0.0000000000000000e+00  -4.4937646791242531e-04  -8.1466577461475971e-04  -1.0174479466798024e-03  -9.8690816622235087e-04  -6.6313681655597121e-04  -4.0201178884426812e-15  1.0325414804731575e-03  2.4467587617663955e-03  4.2361964180280993e-03  6.3754703943966450e-03  8.8208346029508763e-03  1.1511498512470714e-02  1.4371648795267433e-02  1.7313100588050811e-02  2.0238479244110104e-02  2.3044812555227660e-02  2.5627397111989750e-02  2.7883791382305376e-02  2.9717782651239425e-02  3.1043175394799654e-02  3.1787254944489446e-02  3.1893792200714421e-02  3.1325472215781559e-02  3.0065651032203836e-02  2.8119370387452970e-02  2.5513587781583719e-02  2.2296608815792589e-02  1.8536738410752616e-02  1.4320196208937323e-02  9.7483679141719456e-03  4.9344876253747273e-03  0.0000000000000000e+00  0.0000000000000000e+00  -6.9543719504711152e-04  -1.2929730195349487e-03  -1.7013989097341767e-03  -1.8381988444699953e-03  -1.6333341810586483e-03  -1.0325414804820156e-03  -4.8737522508164256e-15  1.4797388262484403e-03  3.4006391699625774e-03  5.7349335160589224e-03  8.4337544407184876e-03  1.1428625471438282e-02  1.4633757614063644e-02  1.7949066708685353e-02  2.1263798572561922e-02  2.4460624994398984e-02  2.7420054984491907e-02  3.0024992981964302e-02  3.2165269467012980e-02  3.3741969867919920e-02  3.4671394776901135e-02  3.4888498024797099e-02  3.4349668592440027e-02  3.3034746905719774e-02  3.0948194816646912e-02  2.8119370387453289e-02  2.4601892211996074e-02  2.0472112093537061e-02  1.5826748112351460e-02  1.0779761238839454e-02  5.4585867622040955e-03  0.0000000000000000e+00  0.0000000000000000e+00  -1.0038960826672834e-03  -1.8963449150433522e-03  -2.5735755085547489e-03  -2.9415252713535216e-03  -2.9200771357592078e-03  -2.4467587617758644e-03  -1.4797388262588439e-03  -5.5419896694307667e-15  1.9874000404862882e-03  4.4530329791205078e-03  7.3437856416173255e-03  1.0584505167221999e-02  1.4080544268879797e-02  1.7721112230405012e-02  2.1383305821235491e-02  2.4936667639004539e-02  2.8248098548204710e-02  3.1186936676081561e-02  3.3630008405700129e-02  3.5466457245447600e-02  3.6602164341291224e-02  3.6963589432781052e-02  3.6500882659432854e-02  3.5190144968848806e-02  3.3034746905720239e-02  3.0065651032204606e-02  2.6340720772533771e-02  2.1943036644646807e-02  1.6978278202453893e-02  1.1571265230452184e-02  5.8617836838666020e-03  0.0000000000000000e+00  0.0000000000000000e+00  -1.3730110986676929e-03  -2.6214336498841836e-03  -3.6292660826496908e-03  -4.2911504768982289e-03  -4.5170253174090513e-03  -4.2361964180379630e-03  -3.4006391699733965e-03  -1.9874000404977860e-03  -5.9476397188691708e-15  2.5312188850473982e-03  5.5498215693944395e-03  8.9750590960590675e-03  1.2704634072683910e-02  1.6618349665999389e-02  2.0582504782736148e-02  2.4454868903771732e-02  2.8090047203484292e-02  3.1345031000811555e-02  3.4084720856221488e-02  3.6187210051468729e-02  3.7548624754609419e-02  3.8087333555673231e-02  3.7747362631718392e-02  3.6500882659433465e-02  3.4349668592441096e-02  3.1325472215782885e-02  2.7489288497393467e-02  2.2929538615397607e-02  1.7759233588063437e-02  1.2112221182605448e-02  6.1386538846770651e-03  0.0000000000000000e+00  0.0000000000000000e+00  -1.7977513398419887e-03  -3.4583363439202024e-03  -4.8539835570723389e-03  -5.8684107602517653e-03  -6.4018526912433520e-03  -6.3754703944066907e-03  -5.7349335160699136e-03  -4.4530329791321564e-03  -2.5312188850594077e-03  -6.0359943493472212e-15  3.0818148085172046e-03  6.6290079998544390e-03  1.0532908567855867e-02  1.4665300650324436e-02  1.8883138070455718e-02  2.3033885878355347e-02  2.6961285342238780e-02  3.0511322014627137e-02  3.3538168119756386e-02  3.5909870900945579e-02  3.7513567720092372e-02  3.8260026268268091e-02  3.8087333555674022e-02  3.6963589432782440e-02  3.4888498024798889e-02  3.1893792200716406e-02  2.8042470456300671e-02  2.3426870691569793e-02  1.8165649616568445e-02  1.2399778287003003e-02  6.2877020267621125e-03  0.0000000000000000e+00  0.0000000000000000e+00  -2.2699049882440275e-03  -4.3908078851778859e-03  -6.2237781810303549e-03  -7.6421216398050770e-03  -8.5367385364484571e-03  -8.8208346029608926e-03  -8.4337544407294164e-03  -7.3437856416288657e-03  -5.5498215694062868e-03  -3.0818148085290540e-03  -5.7772865661402348e-15  3.6070876421709281e-03  7.6257252340608921e-03  1.1921129799517474e-02  1.6342444382235234e-02  2.0728393122510475e-02  2.4913389554437261e-02  2.8733864468574597e-02  3.2034570730540363e-02  3.4674622795681398e-02  3.6533038304817925e-02  3.7513567720093330e-02  3.7548624754611154e-02  3.6602164341293500e-02  3.4671394776903772e-02  3.1787254944492180e-02  2.8013634476525870e-02  2.3445362590414454e-02  1.8205038300695749e-02  1.2438819022181403e-02  6.3113245609371562e-03  0.0000000000000000e+00  0.0000000000000000e+00  -2.7783189373809317e-03  -5.3967360352922527e-03  -7.7059409199829836e-03  -9.5694994722259619e-03  -1.0869494591207248e-02  -1.1511498512480499e-02  -1.1428625471448930e-02  -1.0584505167233192e-02  -8.9750590960704958e-03  -6.6290079998657953e-03  -3.6070876421819124e-03  -5.1671652137922098e-15  4.0748241718267719e-03  8.4775294645120531e-03  1.3051043361234894e-02  1.7626988856594979e-02  2.2032076313853899e-02  2.6094729891361024e-02  2.9651694417345508e-02  3.2554368887560109e-02  3.4674622795682529e-02  3.5909870900947660e-02  3.6187210051471533e-02  3.5466457245450903e-02  3.3741969867923480e-02  3.1043175394803224e-02  2.7433787042029284e-02  2.3009731984734681e-02  1.7895867974795004e-02  1.2241610577020019e-02  6.2156350577357179e-03  0.0000000000000000e+00  0.0000000000000000e+00  -3.3092617332064630e-03  -6.4488621965537330e-03  -9.2600728215479280e-03  -1.1597566254329667e-02  -1.3335288423044742e-02  -1.4371648795276807e-02  -1.4633757614073799e-02  -1.4080544268890424e-02  -1.2704634072694690e-02  -1.0532908567866489e-02  -7.6257252340710601e-03  -4.0748241718362079e-03  -4.2294790508656987e-15  4.4553351130543744e-03  9.1295284979247601e-03  1.3848798921872164e-02  1.8433849683931327e-02  2.2706729554693682e-02  2.6497678382334841e-02  2.9651694417346774e-02  3.2034570730542743e-02  3.3538168119759668e-02  3.4084720856225437e-02  3.3630008405704515e-02  3.2165269467017518e-02  2.9717782651243887e-02  2.6350089047511741e-02  2.2157883843249727e-02  1.7266655107773945e-02  1.1827195863070437e-02  6.0101588146068956e-03  0.0000000000000000e+00  0.0000000000000000e+00  -3.8468966109228096e-03  -7.5157215589035774e-03  -1.0839481291743273e-02  -1.3664986171776965e-02  -1.5858899753934341e-02  -1.7313100588059620e-02  -1.7949066708694845e-02  -1.7721112230414879e-02  -1.6618349666009322e-02  -1.4665300650334123e-02  -1.1921129799526621e-02  -8.4775294645203884e-03  -4.4553351130616585e-03  -3.0201758351431562e-15  4.7238982170959669e-03  9.5389088806626821e-03  1.4261478391965725e-02  1.8708979418784424e-02  2.2706729554695083e-02  2.6094729891363667e-02  2.8733864468578309e-02  3.0511322014631699e-02  3.1345031000816731e-02  3.1186936676087077e-02  3.0024992981969881e-02  2.7883791382310751e-02  2.4823800799001986e-02  2.0939246029573963e-02  1.6354704201232612e-02  1.1220547990057584e-02  5.7074086144342472e-03  0.0000000000000000e+00  0.0000000000000000e+00  -4.3738470587569205e-03  -8.5627676867374228e-03  -1.2392851334946362e-02  -1.5704265473373315e-02  -1.8357425540726197e-02  -2.0238479244118212e-02  -2.1263798572570606e-02  -2.1383305821244449e-02  -2.0582504782745072e-02  -1.8883138070464305e-02  -1.6342444382243200e-02  -1.3051043361241967e-02  -9.1295284979307154e-03  -4.7238982171006255e-03  -1.6159968780404271e-15  4.8627996109941269e-03  9.6784764473181462e-03  1.4261478391967201e-02  1.8433849683934182e-02  2.2032076313857965e-02  2.4913389554442347e-02  2.6961285342244658e-02  2.8090047203490703e-02  2.8248098548211364e-02  2.7420054984498517e-02  2.5627397111996034e-02  2.2927737134112711e-02  1.9412706556997089e-02  1.5204545153777328e-02  1.0451521235108540e-02  5.3223581644875964e-03  0.0000000000000000e+00  0.0000000000000000e+00  -4.8718336670171766e-03  -9.5536392904003349e-03  -1.3866128919967422e-02  -1.7644232882039087e-02  -2.0743331897733704e-02  -2.3044812555234967e-02  -2.4460624994406748e-02  -2.4936667639012467e-02  -2.4454868903779528e-02  -2.3033885878362713e-02  -2.0728393122517140e-02  -1.7626988856600679e-02  -1.3848798921876689e-02  -9.5389088806658705e-03  -4.8627996109958573e-03  -1.0678542936773044e-16  4.8627996109956474e-03  9.5389088806656624e-03  1.3848798921876487e-02  1.7626988856600474e-02  2.0728393122516932e-02  2.3033885878362519e-02  2.4454868903779348e-02  2.4936667639012297e-02  2.4460624994406596e-02  2.3044812555234828e-02  2.0743331897733586e-02  1.7644232882038993e-02  1.3866128919967352e-02  9.5536392904002915e-03  4.8718336670171549e-03  0.0000000000000000e+00  0.0000000000000000e+00  -5.3223581644876207e-03  -1.0451521235108584e-02  -1.5204545153777400e-02  -1.9412706556997186e-02  -2.2927737134112836e-02  -2.5627397111996183e-02  -2.7420054984498676e-02  -2.8248098548211538e-02  -2.8090047203490891e-02  -2.6961285342244859e-02  -2.4913389554442552e-02  -2.2032076313858173e-02  -1.8433849683934384e-02  -1.4261478391967409e-02  -9.6784764473183613e-03  -4.8627996109943429e-03  1.4036905644156221e-15  4.7238982171004164e-03  9.1295284979305107e-03  1.3051043361241760e-02  1.6342444382242999e-02  1.8883138070464121e-02  2.0582504782744898e-02  2.1383305821244286e-02  2.1263798572570464e-02  2.0238479244118087e-02  1.8357425540726093e-02  1.5704265473373231e-02  1.2392851334946301e-02  8.5627676867373829e-03  4.3738470587569005e-03  0.0000000000000000e+00  0.0000000000000000e+00  -5.7074086144342714e-03  -1.1220547990057637e-02  -1.6354704201232695e-02  -2.0939246029574074e-02  -2.4823800799002121e-02  -2.7883791382310903e-02  -3.0024992981970051e-02  -3.1186936676087254e-02  -3.1345031000816925e-02  -3.0511322014631907e-02  -2.8733864468578521e-02  -2.6094729891363876e-02  -2.2706729554695281e-02  -1.8708979418784639e-02  -1.4261478391965940e-02  -9.5389088806628990e-03  -4.7238982170961768e-03  2.8164030370987700e-15  4.4553351130614573e-03  8.4775294645201907e-03  1.1921129799526432e-02  1.4665300650333946e-02  1.6618349666009155e-02  1.7721112230414733e-02  1.7949066708694714e-02  1.7313100588059502e-02  1.5858899753934251e-02  1.3664986171776890e-02  1.0839481291743216e-02  7.5157215589035393e-03  3.8468966109227909e-03  0.0000000000000000e+00  0.0000000000000000e+00  -6.0101588146069199e-03  -1.1827195863070485e-02  -1.7266655107774025e-02  -2.2157883843249841e-02  -2.6350089047511883e-02  -2.9717782651244036e-02  -3.2165269467017699e-02  -3.3630008405704695e-02  -3.4084720856225645e-02  -3.3538168119759876e-02  -3.2034570730542944e-02  -2.9651694417346990e-02  -2.6497678382335056e-02  -2.2706729554693904e-02  -1.8433849683931545e-02  -1.3848798921872376e-02  -9.1295284979249630e-03  -4.4553351130545713e-03  4.0379534295600998e-15  4.0748241718360223e-03  7.6257252340708841e-03  1.0532908567866326e-02  1.2704634072694541e-02  1.4080544268890287e-02  1.4633757614073678e-02  1.4371648795276703e-02  1.3335288423044654e-02  1.1597566254329596e-02  9.2600728215478760e-03  6.4488621965536974e-03  3.3092617332064456e-03  0.0000000000000000e+00  0.0000000000000000e+00  -6.2156350577357421e-03  -1.2241610577020067e-02  -1.7895867974795088e-02  -2.3009731984734785e-02  -2.7433787042029409e-02  -3.1043175394803370e-02  -3.3741969867923639e-02  -3.5466457245451083e-02  -3.6187210051471727e-02  -3.5909870900947854e-02  -3.4674622795682737e-02  -3.2554368887560317e-02  -2.9651694417345727e-02  -2.6094729891361239e-02  -2.2032076313854107e-02  -1.7626988856595183e-02  -1.3051043361235085e-02  -8.4775294645122387e-03  -4.0748241718269506e-03  4.9938264571958093e-15  3.6070876421817489e-03  6.6290079998656427e-03  8.9750590960703570e-03  1.0584505167233067e-02  1.1428625471448815e-02  1.1511498512480404e-02  1.0869494591207165e-02  9.5694994722258942e-03  7.7059409199829350e-03  5.3967360352922215e-03  2.7783189373809161e-03  0.0000000000000000e+00  0.0000000000000000e+00  -6.3113245609371796e-03  -1.2438819022181455e-02  -1.8205038300695822e-02  -2.3445362590414555e-02  -2.8013634476525988e-02  -3.1787254944492319e-02  -3.4671394776903924e-02  -3.6602164341293680e-02  -3.7548624754611334e-02  -3.7513567720093524e-02  -3.6533038304818133e-02  -3.4674622795681620e-02  -3.2034570730540592e-02  -2.8733864468574809e-02  -2.4913389554437462e-02  -2.0728393122510666e-02  -1.6342444382235415e-02  -1.1921129799517647e-02  -7.6257252340610586e-03  -3.6070876421710881e-03  5.6268705757038814e-15  3.0818148085289153e-03  5.5498215694061610e-03  7.3437856416287538e-03  8.4337544407293158e-03  8.8208346029608042e-03  8.5367385364483826e-03  7.6421216398050162e-03  6.2237781810303107e-03  4.3908078851778581e-03  2.2699049882440141e-03  0.0000000000000000e+00  0.0000000000000000e+00  -6.2877020267621342e-03  -1.2399778287003047e-02  -1.8165649616568511e-02  -2.3426870691569880e-02  -2.8042470456300778e-02  -3.1893792200716538e-02  -3.4888498024799035e-02  -3.6963589432782606e-02  -3.8087333555674202e-02  -3.8260026268268285e-02  -3.7513567720092580e-02  -3.5909870900945801e-02  -3.3538168119756601e-02  -3.0511322014627341e-02  -2.6961285342238975e-02  -2.3033885878355524e-02  -1.8883138070455885e-02  -1.4665300650324595e-02  -1.0532908567856020e-02  -6.6290079998545847e-03  -3.0818148085173412e-03  5.9116410840558603e-15  2.5312188850592945e-03  4.4530329791320558e-03  5.7349335160698242e-03  6.3754703944066127e-03  6.4018526912432861e-03  5.8684107602517124e-03  4.8539835570722990e-03  3.4583363439201768e-03  1.7977513398419766e-03  0.0000000000000000e+00  0.0000000000000000e+00  -6.1386538846770842e-03  -1.2112221182605489e-02  -1.7759233588063503e-02  -2.2929538615397690e-02  -2.7489288497393578e-02  -3.1325472215783023e-02  -3.4349668592441242e-02  -3.6500882659433631e-02  -3.7747362631718573e-02  -3.8087333555673418e-02  -3.7548624754609621e-02  -3.6187210051468938e-02  -3.4084720856221697e-02  -3.1345031000811749e-02  -2.8090047203484479e-02  -2.4454868903771902e-02  -2.0582504782736301e-02  -1.6618349665999538e-02  -1.2704634072684053e-02  -8.9750590960591993e-03  -5.5498215693945627e-03  -2.5312188850475101e-03  5.8464595675395129e-15  1.9874000404976949e-03  3.4006391699733162e-03  4.2361964180378945e-03  4.5170253174089924e-03  4.2911504768981812e-03  3.6292660826496553e-03  2.6214336498841615e-03  1.3730110986676820e-03  0.0000000000000000e+00  0.0000000000000000e+00  -5.8617836838666219e-03  -1.1571265230452224e-02  -1.6978278202453949e-02  -2.1943036644646887e-02  -2.6340720772533875e-02  -3.0065651032204727e-02  -3.3034746905720377e-02  -3.5190144968848966e-02  -3.6500882659433007e-02  -3.6963589432781226e-02  -3.6602164341291404e-02  -3.5466457245447801e-02  -3.3630008405700337e-02  -3.1186936676081745e-02  -2.8248098548204877e-02  -2.4936667639004689e-02  -2.1383305821235633e-02  -1.7721112230405147e-02  -1.4080544268879926e-02  -1.0584505167222116e-02  -7.3437856416174348e-03  -4.4530329791206058e-03  -1.9874000404863767e-03  5.4615417427142823e-15  1.479738826258772