<?xml version="1.0"?>
<VTKFile type="UnstructuredGrid"  version="0.1"  >
<UnstructuredGrid>
<Piece  NumberOfPoints="1089" NumberOfCells="2048">
<Points>
<DataArray  type="Float64"  NumberOfComponents="3"  format="ascii">0 0 0  0.03125 0 0  0.0625 0 0  0.09375 0 0  0.125 0 0  0.15625 0 0  0.1875 0 0  0.21875 0 0  0.25 0 0  0.28125 0 0  0.3125 0 0  0.34375 0 0  0.375 0 0  0.40625 0 0  0.4375 0 0  0.46875 0 0  0.5 0 0  0.53125 0 0  0.5625 0 0  0.59375 0 0  0.625 0 0  0.65625 0 0  0.6875 0 0  0.71875 0 0  0.75 0 0  0.78125 0 0  0.8125 0 0  0.84375 0 0  0.875 0 0  0.90625 0 0  0.9375 0 0  0.96875 0 0  1 0 0  0 0.03125 0  0.03125 0.03125 0  0.0625 0.03125 0  0.09375 0.03125 0  0.125 0.03125 0  0.15625 0.03125 0  0.1875 0.03125 0  0.21875 0.03125 0  0.25 0.03125 0  0.28125 0.03125 0  0.3125 0.03125 0  0.34375 0.03125 0  0.375 0.03125 0  0.40625 0.03125 0  0.4375 0.03125 0  0.46875 0.03125 0  0.5 0.03125 0  0.53125 0.03125 0  0.5625 0.03125 0  0.59375 0.03125 0  0.625 0.03125 0  0.65625 0.03125 0  0.6875 0.03125 0  0.71875 0.03125 0  0.75 0.03125 0  0.78125 0.03125 0  0.8125 0.03125 0  0.84375 0.03125 0  0.875 0.03125 0  0.90625 0.03125 0  0.9375 0.03125 0  0.96875 0.03125 0  1 0.03125 0  0 0.0625 0  0.03125 0.0625 0  0.0625 0.0625 0  0.09375 0.0625 0  0.125 0.0625 0  0.15625 0.0625 0  0.1875 0.0625 0  0.21875 0.0625 0  0.25 0.0625 0  0.28125 0.0625 0  0.3125 0.0625 0  0.34375 0.0625 0  0.375 0.0625 0  0.40625 0.0625 0  0.4375 0.0625 0  0.46875 0.0625 0  0.5 0.0625 0  0.53125 0.0625 0  0.5625 0.0625 0  0.59375 0.0625 0  0.625 0.0625 0  0.65625 0.0625 0  0.6875 0.0625 0  0.71875 0.0625 0  0.75 0.0625 0  0.78125 0.0625 0  0.8125 0.0625 0  0.84375 0.0625 0  0.875 0.0625 0  0.90625 0.0625 0  0.9375 0.0625 0  0.96875 0.0625 0  1 0.0625 0  0 0.09375 0  0.03125 0.09375 0  0.0625 0.09375 0  0.09375 0.09375 0  0.125 0.09375 0  0.15625 0.09375 0  0.1875 0.09375 0  0.21875 0.09375 0  0.25 0.09375 0  0.28125 0.09375 0  0.3125 0.09375 0  0.34375 0.09375 0  0.375 0.09375 0  0.40625 0.09375 0  0.4375 0.09375 0  0.46875 0.09375 0  0.5 0.09375 0  0.53125 0.09375 0  0.5625 0.09375 0  0.59375 0.09375 0  0.625 0.09375 0  0.65625 0.09375 0  0.6875 0.09375 0  0.71875 0.09375 0  0.75 0.09375 0  0.78125 0.09375 0  0.8125 0.09375 0  0.84375 0.09375 0  0.875 0.09375 0  0.90625 0.09375 0  0.9375 0.09375 0  0.96875 0.09375 0  1 0.09375 0  0 0.125 0  0.03125 0.125 0  0.0625 0.125 0  0.09375 0.125 0  0.125 0.125 0  0.15625 0.125 0  0.1875 0.125 0  0.21875 0.125 0  0.25 0.125 0  0.28125 0.125 0  0.3125 0.125 0  0.34375 0.125 0  0.375 0.125 0  0.40625 0.125 0  0.4375 0.125 0  0.46875 0.125 0  0.5 0.125 0  0.53125 0.125 0  0.5625 0.125 0  0.59375 0.125 0  0.625 0.125 0  0.65625 0.125 0  0.6875 0.125 0  0.71875 0.125 0  0.75 0.125 0  0.78125 0.125 0  0.8125 0.125 0  0.84375 0.125 0  0.875 0.125 0  0.90625 0.125 0  0.9375 0.125 0  0.96875 0.125 0  1 0.125 0  0 0.15625 0  0.03125 0.15625 0  0.0625 0.15625 0  0.09375 0.15625 0  0.125 0.15625 0  0.15625 0.15625 0  0.1875 0.15625 0  0.21875 0.15625 0  0.25 0.15625 0  0.28125 0.15625 0  0.3125 0.15625 0  0.34375 0.15625 0  0.375 0.15625 0  0.40625 0.15625 0  0.4375 0.15625 0  0.46875 0.15625 0  0.5 0.15625 0  0.53125 0.15625 0  0.5625 0.15625 0  0.59375 0.15625 0  0.625 0.15625 0  0.65625 0.15625 0  0.6875 0.15625 0  0.71875 0.15625 0  0.75 0.15625 0  0.78125 0.15625 0  0.8125 0.15625 0  0.84375 0.15625 0  0.875 0.15625 0  0.90625 0.15625 0  0.9375 0.15625 0  0.96875 0.15625 0  1 0.15625 0  0 0.1875 0  0.03125 0.1875 0  0.0625 0.1875 0  0.09375 0.1875 0  0.125 0.1875 0  0.15625 0.1875 0  0.1875 0.1875 0  0.21875 0.1875 0  0.25 0.1875 0  0.28125 0.1875 0  0.3125 0.1875 0  0.34375 0.1875 0  0.375 0.1875 0  0.40625 0.1875 0  0.4375 0.1875 0  0.46875 0.1875 0  0.5 0.1875 0  0.53125 0.1875 0  0.5625 0.1875 0  0.59375 0.1875 0  0.625 0.1875 0  0.65625 0.1875 0  0.6875 0.1875 0  0.71875 0.1875 0  0.75 0.1875 0  0.78125 0.1875 0  0.8125 0.1875 0  0.84375 0.1875 0  0.875 0.1875 0  0.90625 0.1875 0  0.9375 0.1875 0  0.96875 0.1875 0  1 0.1875 0  0 0.21875 0  0.03125 0.21875 0  0.0625 0.21875 0  0.09375 0.21875 0  0.125 0.21875 0  0.15625 0.21875 0  0.1875 0.21875 0  0.21875 0.21875 0  0.25 0.21875 0  0.28125 0.21875 0  0.3125 0.21875 0  0.34375 0.21875 0  0.375 0.21875 0  0.40625 0.21875 0  0.4375 0.21875 0  0.46875 0.21875 0  0.5 0.21875 0  0.53125 0.21875 0  0.5625 0.21875 0  0.59375 0.21875 0  0.625 0.21875 0  0.65625 0.21875 0  0.6875 0.21875 0  0.71875 0.21875 0  0.75 0.21875 0  0.78125 0.21875 0  0.8125 0.21875 0  0.84375 0.21875 0  0.875 0.21875 0  0.90625 0.21875 0  0.9375 0.21875 0  0.96875 0.21875 0  1 0.21875 0  0 0.25 0  0.03125 0.25 0  0.0625 0.25 0  0.09375 0.25 0  0.125 0.25 0  0.15625 0.25 0  0.1875 0.25 0  0.21875 0.25 0  0.25 0.25 0  0.28125 0.25 0  0.3125 0.25 0  0.34375 0.25 0  0.375 0.25 0  0.40625 0.25 0  0.4375 0.25 0  0.46875 0.25 0  0.5 0.25 0  0.53125 0.25 0  0.5625 0.25 0  0.59375 0.25 0  0.625 0.25 0  0.65625 0.25 0  0.6875 0.25 0  0.71875 0.25 0  0.75 0.25 0  0.78125 0.25 0  0.8125 0.25 0  0.84375 0.25 0  0.875 0.25 0  0.90625 0.25 0  0.9375 0.25 0  0.96875 0.25 0  1 0.25 0  0 0.28125 0  0.03125 0.28125 0  0.0625 0.28125 0  0.09375 0.28125 0  0.125 0.28125 0  0.15625 0.28125 0  0.1875 0.28125 0  0.21875 0.28125 0  0.25 0.28125 0  0.28125 0.28125 0  0.3125 0.28125 0  0.34375 0.28125 0  0.375 0.28125 0  0.40625 0.28125 0  0.4375 0.28125 0  0.46875 0.28125 0  0.5 0.28125 0  0.53125 0.28125 0  0.5625 0.28125 0  0.59375 0.28125 0  0.625 0.28125 0  0.65625 0.28125 0  0.6875 0.28125 0  0.71875 0.28125 0  0.75 0.28125 0  0.78125 0.28125 0  0.8125 0.28125 0  0.84375 0.28125 0  0.875 0.28125 0  0.90625 0.28125 0  0.9375 0.28125 0  0.96875 0.28125 0  1 0.28125 0  0 0.3125 0  0.03125 0.3125 0  0.0625 0.3125 0  0.09375 0.3125 0  0.125 0.3125 0  0.15625 0.3125 0  0.1875 0.3125 0  0.21875 0.3125 0  0.25 0.3125 0  0.28125 0.3125 0  0.3125 0.3125 0  0.34375 0.3125 0  0.375 0.3125 0  0.40625 0.3125 0  0.4375 0.3125 0  0.46875 0.3125 0  0.5 0.3125 0  0.53125 0.3125 0  0.5625 0.3125 0  0.59375 0.3125 0  0.625 0.3125 0  0.65625 0.3125 0  0.6875 0.3125 0  0.71875 0.3125 0  0.75 0.3125 0  0.78125 0.3125 0  0.8125 0.3125 0  0.84375 0.3125 0  0.875 0.3125 0  0.90625 0.3125 0  0.9375 0.3125 0  0.96875 0.3125 0  1 0.3125 0  0 0.34375 0  0.03125 0.34375 0  0.0625 0.34375 0  0.09375 0.34375 0  0.125 0.34375 0  0.15625 0.34375 0  0.1875 0.34375 0  0.21875 0.34375 0  0.25 0.34375 0  0.28125 0.34375 0  0.3125 0.34375 0  0.34375 0.34375 0  0.375 0.34375 0  0.40625 0.34375 0  0.4375 0.34375 0  0.46875 0.34375 0  0.5 0.34375 0  0.53125 0.34375 0  0.5625 0.34375 0  0.59375 0.34375 0  0.625 0.34375 0  0.65625 0.34375 0  0.6875 0.34375 0  0.71875 0.34375 0  0.75 0.34375 0  0.78125 0.34375 0  0.8125 0.34375 0  0.84375 0.34375 0  0.875 0.34375 0  0.90625 0.34375 0  0.9375 0.34375 0  0.96875 0.34375 0  1 0.34375 0  0 0.375 0  0.03125 0.375 0  0.0625 0.375 0  0.09375 0.375 0  0.125 0.375 0  0.15625 0.375 0  0.1875 0.375 0  0.21875 0.375 0  0.25 0.375 0  0.28125 0.375 0  0.3125 0.375 0  0.34375 0.375 0  0.375 0.375 0  0.40625 0.375 0  0.4375 0.375 0  0.46875 0.375 0  0.5 0.375 0  0.53125 0.375 0  0.5625 0.375 0  0.59375 0.375 0  0.625 0.375 0  0.65625 0.375 0  0.6875 0.375 0  0.71875 0.375 0  0.75 0.375 0  0.78125 0.375 0  0.8125 0.375 0  0.84375 0.375 0  0.875 0.375 0  0.90625 0.375 0  0.9375 0.375 0  0.96875 0.375 0  1 0.375 0  0 0.40625 0  0.03125 0.40625 0  0.0625 0.40625 0  0.09375 0.40625 0  0.125 0.40625 0  0.15625 0.40625 0  0.1875 0.40625 0  0.21875 0.40625 0  0.25 0.40625 0  0.28125 0.40625 0  0.3125 0.40625 0  0.34375 0.40625 0  0.375 0.40625 0  0.40625 0.40625 0  0.4375 0.40625 0  0.46875 0.40625 0  0.5 0.40625 0  0.53125 0.40625 0  0.5625 0.40625 0  0.59375 0.40625 0  0.625 0.40625 0  0.65625 0.40625 0  0.6875 0.40625 0  0.71875 0.40625 0  0.75 0.40625 0  0.78125 0.40625 0  0.8125 0.40625 0  0.84375 0.40625 0  0.875 0.40625 0  0.90625 0.40625 0  0.9375 0.40625 0  0.96875 0.40625 0  1 0.40625 0  0 0.4375 0  0.03125 0.4375 0  0.0625 0.4375 0  0.09375 0.4375 0  0.125 0.4375 0  0.15625 0.4375 0  0.1875 0.4375 0  0.21875 0.4375 0  0.25 0.4375 0  0.28125 0.4375 0  0.3125 0.4375 0  0.34375 0.4375 0  0.375 0.4375 0  0.40625 0.4375 0  0.4375 0.4375 0  0.46875 0.4375 0  0.5 0.4375 0  0.53125 0.4375 0  0.5625 0.4375 0  0.59375 0.4375 0  0.625 0.4375 0  0.65625 0.4375 0  0.6875 0.4375 0  0.71875 0.4375 0  0.75 0.4375 0  0.78125 0.4375 0  0.8125 0.4375 0  0.84375 0.4375 0  0.875 0.4375 0  0.90625 0.4375 0  0.9375 0.4375 0  0.96875 0.4375 0  1 0.4375 0  0 0.46875 0  0.03125 0.46875 0  0.0625 0.46875 0  0.09375 0.46875 0  0.125 0.46875 0  0.15625 0.46875 0  0.1875 0.46875 0  0.21875 0.46875 0  0.25 0.46875 0  0.28125 0.46875 0  0.3125 0.46875 0  0.34375 0.46875 0  0.375 0.46875 0  0.40625 0.46875 0  0.4375 0.46875 0  0.46875 0.46875 0  0.5 0.46875 0  0.53125 0.46875 0  0.5625 0.46875 0  0.59375 0.46875 0  0.625 0.46875 0  0.65625 0.46875 0  0.6875 0.46875 0  0.71875 0.46875 0  0.75 0.46875 0  0.78125 0.46875 0  0.8125 0.46875 0  0.84375 0.46875 0  0.875 0.46875 0  0.90625 0.46875 0  0.9375 0.46875 0  0.96875 0.46875 0  1 0.46875 0  0 0.5 0  0.03125 0.5 0  0.0625 0.5 0  0.09375 0.5 0  0.125 0.5 0  0.15625 0.5 0  0.1875 0.5 0  0.21875 0.5 0  0.25 0.5 0  0.28125 0.5 0  0.3125 0.5 0  0.34375 0.5 0  0.375 0.5 0  0.40625 0.5 0  0.4375 0.5 0  0.46875 0.5 0  0.5 0.5 0  0.53125 0.5 0  0.5625 0.5 0  0.59375 0.5 0  0.625 0.5 0  0.65625 0.5 0  0.6875 0.5 0  0.71875 0.5 0  0.75 0.5 0  0.78125 0.5 0  0.8125 0.5 0  0.84375 0.5 0  0.875 0.5 0  0.90625 0.5 0  0.9375 0.5 0  0.96875 0.5 0  1 0.5 0  0 0.53125 0  0.03125 0.53125 0  0.0625 0.53125 0  0.09375 0.53125 0  0.125 0.53125 0  0.15625 0.53125 0  0.1875 0.53125 0  0.21875 0.53125 0  0.25 0.53125 0  0.28125 0.53125 0  0.3125 0.53125 0  0.34375 0.53125 0  0.375 0.53125 0  0.40625 0.53125 0  0.4375 0.53125 0  0.46875 0.53125 0  0.5 0.53125 0  0.53125 0.53125 0  0.5625 0.53125 0  0.59375 0.53125 0  0.625 0.53125 0  0.65625 0.53125 0  0.6875 0.53125 0  0.71875 0.53125 0  0.75 0.53125 0  0.78125 0.531
[...]
<PointData  Scalars="phi"> 
<DataArray  type="Float64"  Name="phi"  format="ascii">0.0000000000000000e+00  0.0000000000000000e+00  0.0000000000000000e+00  0.0000000000000000e+00  0.0000000000000000e+00  0.0000000000000000e+00  0.0000000000000000e+00  0.0000000000000000e+00  0.0000000000000000e+00  0.0000000000000000e+00  0.0000000000000000e+00  0.0000000000000000e+00  0.0000000000000000e+00  0.0000000000000000e+00  0.0000000000000000e+00  0.0000000000000000e+00  0.0000000000000000e+00  0.0000000000000000e+00  0.0000000000000000e+00  0.0000000000000000e+00  0.0000000000000000e+00  0.0000000000000000e+00  0.0000000000000000e+00  0.0000000000000000e+00  0.0000000000000000e+00  0.0000000000000000e+00  0.0000000000000000e+00  0.0000000000000000e+00  0.0000000000000000e+00  0.0000000000000000e+00  0.0000000000000000e+00  0.0000000000000000e+00  0.0000000000000000e+00  0.0000000000000000e+00  4.2382597189705180e-06  8.4447708030904437e-06  1.2574412209812411e-05  1.6585747282120218e-05  2.0439197824235534e-05  2.4097067305532194e-05  2.7523743839869613e-05  3.0685963626037724e-05  3.3553087922771171e-05  3.6097372514125642e-05  3.8294218765719078e-05  4.0122399781591857e-05  4.1564257331578623e-05  4.2605866434510363e-05  4.3237165275831506e-05  4.3452048731901683e-05  4.3248424266786637e-05  4.2628229406022647e-05  4.1597410395214802e-05  4.0165862025128070e-05  3.8347328945496578e-05  3.6159269084017970e-05  3.3622680007787232e-05  3.0761889158001600e-05  2.7604308744091991e-05  2.4180155455057029e-05  2.0522133447005492e-05  1.6665074770368334e-05  1.2645520167062528e-05  8.5011914912615330e-06  4.2702090757862551e-06  0.0000000000000000e+00  0.0000000000000000e+00  8.4447708030904454e-06  1.6825009564438345e-05  2.5050592653563085e-05  3.3039841300503987e-05  4.0714265056447334e-05  4.7998934948568581e-05  5.4822999903178158e-05  6.1120253299513537e-05  6.6829701621992161e-05  7.1896108629979053e-05  7.6270498911586116e-05  7.9910610080469893e-05  8.2781285913396968e-05  8.4854804642208804e-05  8.6111137978404895e-05  8.6538137533731464e-05  8.6131646237351506e-05  8.4895533202359089e-05  8.2841651289158132e-05  7.9989717357783482e-05  7.6367115888399486e-05  7.2008627257362403e-05  6.6956082443453527e-05  6.1257946227757850e-05  5.4968830894830573e-05  4.8148941754907538e-05  4.0863453903724148e-05  3.3181815317187041e-05  2.5176962243562795e-05  1.6924414816315868e-05  8.5011914912615330e-06  0.0000000000000000e+00  0.0000000000000000e+00  1.2574412209812411e-05  2.5050592653563085e-05  3.7294295664739937e-05  4.9185058080690144e-05  6.0606573227158485e-05  7.1447580752774981e-05  8.1602773355045322e-05  9.0973699968102223e-05  9.9469639574110177e-05  1.0700842437493525e-04  1.1351719597784833e-04  1.1893308197903766e-04  1.2320378303868777e-04  1.2628806259227035e-04  1.2815613300398818e-04  1.2878993340578347e-04  1.2818329577256118e-04  1.2634199701000974e-04  1.2328369599678946e-04  1.1903775563107375e-04  1.1364495097184130e-04  1.0715706551366156e-04  9.9636378448110733e-05  9.1155046376863413e-05  8.1794383239466796e-05  7.1644042024407629e-05  6.0801100878525479e-05  4.9369054204136000e-05  3.7456706232532824e-05  2.5176962243562795e-05  1.2645520167062528e-05  0.0000000000000000e+00  0.0000000000000000e+00  1.6585747282120215e-05  3.3039841300503993e-05  4.9185058080690144e-05  6.4863490476361910e-05  7.9922317894410975e-05  9.4215151999828026e-05  1.0760333228645143e-04  1.1995717122950062e-04  1.3115713556449140e-04  1.4109494748786369e-04  1.4967459049010780e-04  1.5681320644164362e-04  1.6244187257456814e-04  1.6650624891485698e-04  1.6896708850112481e-04  1.6980060440750978e-04  1.6899868919940256e-04  1.6656898400961296e-04  1.6253479593495221e-04  1.5693486391434996e-04  1.4982297464556649e-04  1.4126743140528472e-04  1.3135037982393768e-04  1.2016699568798852e-04  1.0782454064482171e-04  9.4441292218701750e-05  8.0145354814503813e-05  6.5073358604045132e-05  4.9369054204136006e-05  3.3181815317187048e-05  1.6665074770368337e-05  0.0000000000000000e+00  0.0000000000000000e+00  2.0439197824235527e-05  4.0714265056447348e-05  6.0606573227158498e-05  7.9922317894410975e-05  9.8473714436993158e-05  1.1608073507059668e-04  1.3257276583529337e-04  1.4779018088883941e-04  1.6158582292746595e-04  1.7382637515195548e-04  1.8439360974042718e-04  1.9318549873726770e-04  2.0011717481124538e-04  2.0512173110862983e-04  2.0815085127871093e-04  2.0917526262210755e-04  2.0818500718454614e-04  2.0518952747874082e-04  2.0021756535371988e-04  1.9331687433081835e-04  1.8455374747133944e-04  1.7401236451190241e-04  1.6179396357691981e-04  1.4801584423239383e-04  1.3281020997198636e-04  1.1632285945226503e-04  9.8711737038693285e-05  8.0145354814503840e-05  6.0801100878525493e-05  4.0863453903724169e-05  2.0522133447005498e-05  0.0000000000000000e+00  0.0000000000000000e+00  2.4097067305532197e-05  4.7998934948568608e-05  7.1447580752775035e-05  9.4215151999828067e-05  1.1608073507059669e-04  1.3683243802262618e-04  1.5626937819705140e-04  1.7420356496872789e-04  1.9046166402865932e-04  2.0488662761334627e-04  2.1733917475856858e-04  2.2769910641340564e-04  2.3586644165046259e-04  2.4176236296384501e-04  2.4532996059601112e-04  2.4653476789058914e-04  2.4536508178123006e-04  2.4183206466522718e-04  2.3596962605113275e-04  2.2783408449073600e-04  2.1750361238713630e-04  2.0507746829286270e-04  1.9067502325884780e-04  1.7443458965869888e-04  1.5651206270419219e-04  1.3707938663713550e-04  1.1632285945226505e-04  9.4441292218701791e-05  7.1644042024407670e-05  4.8148941754907558e-05  2.4180155455057039e-05  0.0000000000000000e+00  0.0000000000000000e+00  2.7523743839869620e-05  5.4822999903178185e-05  8.1602773355045390e-05  1.0760333228645149e-04  1.3257276583529337e-04  1.5626937819705143e-04  1.7846397766239265e-04  1.9894204420351459e-04  2.1750575826138594e-04  2.3397587289148049e-04  2.4819341169814082e-04  2.6002117596641812e-04  2.6934504590452312e-04  2.7607506277255449e-04  2.8014628077119362e-04  2.8151937981432792e-04  2.8018103265560322e-04  2.7614402224020054e-04  2.6944710757806096e-04  2.6015463885666404e-04  2.4835592490695730e-04  2.3416435848529988e-04  2.1771630712303066e-04  1.9916977951896570e-04  1.7870287962128511e-04  1.5651206270419219e-04  1.3281020997198638e-04  1.0782454064482175e-04  8.1794383239466850e-05  5.4968830894830600e-05  2.7604308744092001e-05  0.0000000000000000e+00  0.0000000000000000e+00  3.0685963626037738e-05  6.1120253299513564e-05  9.0973699968102277e-05  1.1995717122950066e-04  1.4779018088883944e-04  1.7420356496872786e-04  1.9894204420351459e-04  2.2176665147922550e-04  2.4245700323456408e-04  2.6081339438329944e-04  2.7665869721410963e-04  2.8984004605847851e-04  3.0023029124936432e-04  3.0772920794240740e-04  3.1226444765762340e-04  3.1379222285627068e-04  3.1229771744194858e-04  3.0779521872450685e-04  3.0032796907483608e-04  2.8996773819790127e-04  2.7681411963442868e-04  2.6099355774669475e-04  2.4265811403488243e-04  2.2198398415973532e-04  1.9916977951896575e-04  1.7443458965869899e-04  1.4801584423239388e-04  1.2016699568798856e-04  9.1155046376863467e-05  6.1257946227757904e-05  3.0761889158001620e-05  0.0000000000000000e+00  0.0000000000000000e+00  3.3553087922771164e-05  6.6829701621992188e-05  9.9469639574110259e-05  1.3115713556449145e-04  1.6158582292746600e-04  1.9046166402865937e-04  2.1750575826138600e-04  2.4245700323456411e-04  2.6507458503983718e-04  2.8514027467115824e-04  3.0246050905752329e-04  3.1686823685569076e-04  3.2822451114386585e-04  3.3641981342522693e-04  3.4137509584251534e-04  3.4304253117136839e-04  3.4140596295449981e-04  3.3648105102025759e-04  3.2831511056128856e-04  3.1698664589978440e-04  3.0260458300657546e-04  2.8530720774768326e-04  2.6526081968410783e-04  2.4265811403488248e-04  2.1771630712303077e-04  1.9067502325884799e-04  1.6179396357691989e-04  1.3135037982393773e-04  9.9636378448110800e-05  6.6956082443453581e-05  3.3622680007787260e-05  0.0000000000000000e+00  0.0000000000000000e+00  3.6097372514125669e-05  7.1896108629979135e-05  1.0700842437493534e-04  1.4109494748786380e-04  1.7382637515195561e-04  2.0488662761334640e-04  2.3397587289148060e-04  2.6081339438329949e-04  2.8514027467115829e-04  3.0672187040944540e-04  3.2535005490580990e-04  3.4084520699585079e-04  3.5305792705204330e-04  3.6187046345298885e-04  3.6719783553532386e-04  3.6898864191873919e-04  3.6722554609451054e-04  3.6192543426112188e-04  3.5313924354082188e-04  3.4095146188477731e-04  3.2547930414125520e-04  3.0687157189349340e-04  2.8530720774768337e-04  2.6099355774669480e-04  2.3416435848530001e-04  2.0507746829286281e-04  1.7401236451190249e-04  1.4126743140528480e-04  1.0715706551366162e-04  7.2008627257362458e-05  3.6159269084017991e-05  0.0000000000000000e+00  0.0000000000000000e+00  3.8294218765719119e-05  7.6270498911586198e-05  1.1351719597784848e-04  1.4967459049010801e-04  1.8439360974042745e-04  2.1733917475856885e-04  2.4819341169814103e-04  2.7665869721410974e-04  3.0246050905752340e-04  3.2535005490581001e-04  3.4510665443450406e-04  3.6153985185291809e-04  3.7449123858131152e-04  3.8383596842893065e-04  3.8948395051553909e-04  3.9138070823093542e-04  3.8950789571146310e-04  3.8388346659303489e-04  3.7456149314085154e-04  3.6163163722238538e-04  3.4521827794986972e-04  3.2547930414125520e-04  3.0260458300657557e-04  2.7681411963442878e-04  2.4835592490695730e-04  2.1750361238713636e-04  1.8455374747133950e-04  1.4982297464556654e-04  1.1364495097184135e-04  7.6367115888399540e-05  3.8347328945496598e-05  0.0000000000000000e+00  0.0000000000000000e+00  4.0122399781591925e-05  7.9910610080470028e-05  1.1893308197903788e-04  1.5681320644164392e-04  1.9318549873726805e-04  2.2769910641340599e-04  2.6002117596641850e-04  2.8984004605847878e-04  3.1686823685569092e-04  3.4084520699585101e-04  3.6153985185291825e-04  3.7875271915919345e-04  3.9231792067410872e-04  4.0210472143653830e-04  4.0801879118191481e-04  4.1000310571594678e-04  4.0803848937951602e-04  4.0214379317889489e-04  3.9237570665606942e-04  3.7882820510052478e-04  3.6163163722238543e-04  3.4095146188477737e-04  3.1698664589978451e-04  2.8996773819790127e-04  2.6015463885666404e-04  2.2783408449073602e-04  1.9331687433081837e-04  1.5693486391434996e-04  1.1903775563107378e-04  7.9989717357783509e-05  4.0165862025128083e-05  0.0000000000000000e+00  0.0000000000000000e+00  4.1564257331578718e-05  8.2781285913397185e-05  1.2320378303868804e-04  1.6244187257456847e-04  2.0011717481124584e-04  2.3586644165046305e-04  2.6934504590452361e-04  3.0023029124936476e-04  3.2822451114386606e-04  3.5305792705204368e-04  3.7449123858131184e-04  3.9231792067410894e-04  4.0636620575138421e-04  4.1650073168680976e-04  4.2262383966534318e-04  4.2467650931916440e-04  4.2263892200483904e-04  4.1653064665284008e-04  4.0641044624847248e-04  3.9237570665606942e-04  3.7456149314085165e-04  3.5313924354082188e-04  3.2831511056128845e-04  3.0032796907483597e-04  2.6944710757806096e-04  2.3596962605113272e-04  2.0021756535371985e-04  1.6253479593495221e-04  1.2328369599678946e-04  8.2841651289158172e-05  4.1597410395214809e-05  0.0000000000000000e+00  0.0000000000000000e+00  4.2605866434510458e-05  8.4854804642209007e-05  1.2628806259227062e-04  1.6650624891485739e-04  2.0512173110863037e-04  2.4176236296384563e-04  2.7607506277255514e-04  3.0772920794240805e-04  3.3641981342522764e-04  3.6187046345298945e-04  3.8383596842893130e-04  4.0210472143653890e-04  4.1650073168681003e-04  4.2688531530247771e-04  4.3315842711013817e-04  4.3525962054703109e-04  4.3316862635533142e-04  4.2690554439822826e-04  4.1653064665284040e-04  4.0214379317889506e-04  3.8388346659303505e-04  3.6192543426112188e-04  3.3648105102025754e-04  3.0779521872450685e-04  2.7614402224020054e-04  2.4183206466522723e-04  2.0518952747874093e-04  1.6656898400961299e-04  1.2634199701000974e-04  8.4895533202359089e-05  4.2628229406022660e-05  0.0000000000000000e+00  0.0000000000000000e+00  4.3237165275831615e-05  8.6111137978405112e-05  1.2815613300398850e-04  1.6896708850112525e-04  2.0815085127871155e-04  2.4532996059601188e-04  2.8014628077119438e-04  3.1226444765762416e-04  3.4137509584251621e-04  3.6719783553532473e-04  3.8948395051554001e-04  4.0801879118191556e-04  4.2262383966534367e-04  4.3315842711013844e-04  4.3952108656470257e-04  4.4165052842099568e-04  4.3952622896929668e-04  4.3316862635533164e-04  4.2263892200483948e-04  4.0803848937951608e-04  3.8950789571146304e-04  3.6722554609451048e-04  3.4140596295449970e-04  3.1229771744194852e-04  2.8018103265560316e-04  2.4536508178123000e-04  2.0818500718454617e-04  1.6899868919940253e-04  1.2818329577256120e-04  8.6131646237351533e-05  4.3248424266786637e-05  0.0000000000000000e+00  0.0000000000000000e+00  4.3452048731901818e-05  8.6538137533731735e-05  1.2878993340578387e-04  1.6980060440751032e-04  2.0917526262210825e-04  2.4653476789058995e-04  2.8151937981432890e-04  3.1379222285627165e-04  3.4304253117136937e-04  3.6898864191874027e-04  3.9138070823093645e-04  4.1000310571594770e-04  4.2467650931916499e-04  4.3525962054703153e-04  4.4165052842099601e-04  4.4378769105728264e-04  4.4165052842099590e-04  4.3525962054703126e-04  4.2467650931916456e-04  4.1000310571594678e-04  3.9138070823093531e-04  3.6898864191873908e-04  3.4304253117136823e-04  3.1379222285627057e-04  2.8151937981432792e-04  2.4653476789058908e-04  2.0917526262210752e-04  1.6980060440750975e-04  1.2878993340578347e-04  8.6538137533731464e-05  4.3452048731901696e-05  0.0000000000000000e+00  0.0000000000000000e+00  4.3248424266786799e-05  8.6131646237351859e-05  1.2818329577256169e-04  1.6899868919940323e-04  2.0818500718454698e-04  2.4536508178123098e-04  2.8018103265560430e-04  3.1229771744194972e-04  3.4140596295450105e-04  3.6722554609451184e-04  3.8950789571146435e-04  4.0803848937951700e-04  4.2263892200483991e-04  4.3316862635533207e-04  4.3952622896929695e-04  4.4165052842099574e-04  4.3952108656470241e-04  4.3315842711013811e-04  4.2262383966534307e-04  4.0801879118191453e-04  3.8948395051553866e-04  3.6719783553532364e-04  3.4137509584251523e-04  3.1226444765762335e-04  2.8014628077119356e-04  2.4532996059601112e-04  2.0815085127871095e-04  1.6896708850112476e-04  1.2815613300398815e-04  8.6111137978404895e-05  4.3237165275831506e-05  0.0000000000000000e+00  0.0000000000000000e+00  4.2628229406022837e-05  8.4895533202359469e-05  1.2634199701001031e-04  1.6656898400961378e-04  2.0518952747874185e-04  2.4183206466522834e-04  2.7614402224020184e-04  3.0779521872450821e-04  3.3648105102025900e-04  3.6192543426112335e-04  3.8388346659303630e-04  4.0214379317889609e-04  4.1653064665284116e-04  4.2690554439822896e-04  4.3316862635533202e-04  4.3525962054703136e-04  4.3315842711013811e-04  4.2688531530247738e-04  4.1650073168680927e-04  4.0210472143653770e-04  3.8383596842893016e-04  3.6187046345298858e-04  3.3641981342522683e-04  3.0772920794240740e-04  2.7607506277255449e-04  2.4176236296384504e-04  2.0512173110862988e-04  1.6650624891485696e-04  1.2628806259227032e-04  8.4854804642208804e-05  4.2605866434510363e-05  0.0000000000000000e+00  0.0000000000000000e+00  4.1597410395214999e-05  8.2841651289158565e-05  1.2328369599679009e-04  1.6253479593495308e-04  2.0021756535372096e-04  2.3596962605113399e-04  2.6944710757806231e-04  3.0032796907483749e-04  3.2831511056129024e-04  3.5313924354082350e-04  3.7456149314085306e-04  3.9237570665607083e-04  4.0641044624847367e-04  4.1653064665284116e-04  4.2263892200483991e-04  4.2467650931916488e-04  4.2262383966534329e-04  4.1650073168680943e-04  4.0636620575138351e-04  3.9231792067410791e-04  3.7449123858131097e-04  3.5305792705204303e-04  3.2822451114386568e-04  3.0023029124936422e-04  2.6934504590452307e-04  2.3586644165046251e-04  2.0011717481124532e-04  1.6244187257456809e-04  1.2320378303868774e-04  8.2781285913396968e-05  4.1564257331578610e-05  0.0000000000000000e+00  0.0000000000000000e+00  4.0165862025128280e-05  7.9989717357783929e-05  1.1903775563107439e-04  1.5693486391435080e-04  1.9331687433081940e-04  2.2783408449073722e-04  2.6015463885666534e-04  2.8996773819790279e-04  3.1698664589978603e-04  3.4095146188477900e-04  3.6163163722238695e-04  3.7882820510052624e-04  3.9237570665607066e-04  4.0214379317889598e-04  4.0803848937951689e-04  4.1000310571594732e-04  4.0801879118191486e-04  4.0210472143653798e-04  3.9231792067410807e-04  3.7875271915919264e-04  3.6153985185291755e-04  3.4084520699585047e-04  3.1686823685569059e-04  2.8984004605847840e-04  2.6002117596641812e-04  2.2769910641340550e-04  1.9318549873726759e-04  1.5681320644164352e-04  1.1893308197903761e-04  7.9910610080469852e-05  4.0122399781591837e-05  0.0000000000000000e+00  0.0000000000000000e+00  3.8347328945496781e-05  7.6367115888399933e-05  1.1364495097184195e-04  1.4982297464556733e-04  1.8455374747134047e-04  2.1750361238713749e-04  2.4835592490695866e-04  2.7681411963443019e-04  3.0260458300657703e-04  3.2547930414125682e-04  3.4521827794987124e-04  3.6163163722238684e-04  3.7456149314085295e-04  3.8388346659303608e-04  3.8950789571146397e-04  3.9138070823093596e-04  3.8948395051553920e-04  3.8383596842893054e-04  3.7449123858131124e-04  3.6153985185291776e-04  3.4510665443450374e-04  3.2535005490580968e-04  3.0246050905752319e-04  2.7665869721410957e-04  2.4819341169814071e-04  2.1733917475856839e-04  1.8439360974042699e-04  1.4967459049010763e-04  1.1351719597784823e-04  7.6270498911586049e-05  3.8294218765719044e-05  0.0000000000000000e+00  0.0000000000000000e+00  3.6159269084018167e-05  7.2008627257362824e-05  1.0715706551366219e-04  1.4126743140528556e-04  1.7401236451190344e-04  2.0507746829286392e-04  2.3416435848530126e-04  2.6099355774669621e-04  2.8530720774768478e-04  3.0687157189349492e-04  3.2547930414125671e-04  3.4095146188477878e-04  3.5313924354082329e-04  3.6192543426112308e-04  3.6722554609451151e-04  3.6898864191873984e-04  3.6719783553532408e-04  3.6187046345298896e-04  3.5305792705204325e-04  3.4084520699585063e-04  3.2535005490580968e-04  3.0672187040944518e-04  2.8514027467115813e-04  2.6081339438329939e-04  2.3397587289148035e-04  2.0488662761334605e-04  1.7382637515195526e-04  1.4109494748786348e-04  1.0700842437493508e-04  7.1896108629978958e-05  3.6097372514125595e-05  0.0000000000000000e+00  0.0000000000000000e+00  3.3622680007787422e-05  6.6956082443453933e-05  9.9636378448111329e-05  1.3135037982393844e-04  1.6179396357692084e-04  1.9067502325884907e-04  2.1771630712303199e-04  2.4265811403488376e-04  2.6526081968410918e-04  2.8530720774768478e-04  3.0260458300657687e-04  3.1698664589978586e-04  3.2831511056128986e-04  3.3648105102025868e-04  3.4140596295450078e-04  3.4304253117136910e-04  3.4137509584251577e-04  3.3641981342522726e-04  3.2822451114386590e-04  3.1686823685569065e-04  3.0246050905752319e-04  2.8514027467115813e-04  2.6507458503983701e-04  2.4245700323456394e-04  2.1750575826138570e-04  1.9046166402865905e-04  1.6158582292746571e-04  1.3115713556449116e-04  9.9469639574109988e-05  6.6829701621992052e-05  3.3553087922771110e-05  0.0000000000000000e+00  0.0000000000000000e+00  3.0761889158001790e-05  6.1257946227758229e-05  9.1155046376863982e-05  1.2016699568798924e-04  1.4801584423239475e-04  1.7443458965869996e-04  1.9916977951896689e-04  2.2198398415973651e-04  2.4265811403488367e-04  2.6099355774669610e-04  2.7681411963443008e-04  2.8996773819790257e-04  3.0032796907483738e-04  3.0779521872450794e-04  3.1229771744194945e-04  3.1379222285627133e-04  3.1226444765762378e-04  3.0772920794240773e-04  3.0023029124936443e-04  2.8984004605847851e-04  2.7665869721410963e-04  2.6081339438329928e-04  2.4245700323456397e-04  2.2176665147922533e-04  1.9894204420351427e-04  1.7420356496872748e-04  1.4779018088883908e-04  1.1995717122950036e-04  9.0973699968102033e-05  6.1120253299513401e-05  3.0685963626037656e-05  0.0000000000000000e+00  0.0000000000000000e+00  2.7604308744092164e-05  5.4968830894830905e-05  8.1794383239467311e-05  1.0782454064482236e-0