<?xml version="1.0"?>
<VTKFile type="UnstructuredGrid"  version="0.1"  >
<UnstructuredGrid>
<Piece  NumberOfPoints="1089" NumberOfCells="2048">
<Points>
<DataArray  type="Float64"  NumberOfComponents="3"  format="ascii">0 0 0  0.03125 0 0  0.0625 0 0  0.09375 0 0  0.125 0 0  0.15625 0 0  0.1875 0 0  0.21875 0 0  0.25 0 0  0.28125 0 0  0.3125 0 0  0.34375 0 0  0.375 0 0  0.40625 0 0  0.4375 0 0  0.46875 0 0  0.5 0 0  0.53125 0 0  0.5625 0 0  0.59375 0 0  0.625 0 0  0.65625 0 0  0.6875 0 0  0.71875 0 0  0.75 0 0  0.78125 0 0  0.8125 0 0  0.84375 0 0  0.875 0 0  0.90625 0 0  0.9375 0 0  0.96875 0 0  1 0 0  0 0.03125 0  0.03125 0.03125 0  0.0625 0.03125 0  0.09375 0.03125 0  0.125 0.03125 0  0.15625 0.03125 0  0.1875 0.03125 0  0.21875 0.03125 0  0.25 0.03125 0  0.28125 0.03125 0  0.3125 0.03125 0  0.34375 0.03125 0  0.375 0.03125 0  0.40625 0.03125 0  0.4375 0.03125 0  0.46875 0.03125 0  0.5 0.03125 0  0.53125 0.03125 0  0.5625 0.03125 0  0.59375 0.03125 0  0.625 0.03125 0  0.65625 0.03125 0  0.6875 0.03125 0  0.71875 0.03125 0  0.75 0.03125 0  0.78125 0.03125 0  0.8125 0.03125 0  0.84375 0.03125 0  0.875 0.03125 0  0.90625 0.03125 0  0.9375 0.03125 0  0.96875 0.03125 0  1 0.03125 0  0 0.0625 0  0.03125 0.0625 0  0.0625 0.0625 0  0.09375 0.0625 0  0.125 0.0625 0  0.15625 0.0625 0  0.1875 0.0625 0  0.21875 0.0625 0  0.25 0.0625 0  0.28125 0.0625 0  0.3125 0.0625 0  0.34375 0.0625 0  0.375 0.0625 0  0.40625 0.0625 0  0.4375 0.0625 0  0.46875 0.0625 0  0.5 0.0625 0  0.53125 0.0625 0  0.5625 0.0625 0  0.59375 0.0625 0  0.625 0.0625 0  0.65625 0.0625 0  0.6875 0.0625 0  0.71875 0.0625 0  0.75 0.0625 0  0.78125 0.0625 0  0.8125 0.0625 0  0.84375 0.0625 0  0.875 0.0625 0  0.90625 0.0625 0  0.9375 0.0625 0  0.96875 0.0625 0  1 0.0625 0  0 0.09375 0  0.03125 0.09375 0  0.0625 0.09375 0  0.09375 0.09375 0  0.125 0.09375 0  0.15625 0.09375 0  0.1875 0.09375 0  0.21875 0.09375 0  0.25 0.09375 0  0.28125 0.09375 0  0.3125 0.09375 0  0.34375 0.09375 0  0.375 0.09375 0  0.40625 0.09375 0  0.4375 0.09375 0  0.46875 0.09375 0  0.5 0.09375 0  0.53125 0.09375 0  0.5625 0.09375 0  0.59375 0.09375 0  0.625 0.09375 0  0.65625 0.09375 0  0.6875 0.09375 0  0.71875 0.09375 0  0.75 0.09375 0  0.78125 0.09375 0  0.8125 0.09375 0  0.84375 0.09375 0  0.875 0.09375 0  0.90625 0.09375 0  0.9375 0.09375 0  0.96875 0.09375 0  1 0.09375 0  0 0.125 0  0.03125 0.125 0  0.0625 0.125 0  0.09375 0.125 0  0.125 0.125 0  0.15625 0.125 0  0.1875 0.125 0  0.21875 0.125 0  0.25 0.125 0  0.28125 0.125 0  0.3125 0.125 0  0.34375 0.125 0  0.375 0.125 0  0.40625 0.125 0  0.4375 0.125 0  0.46875 0.125 0  0.5 0.125 0  0.53125 0.125 0  0.5625 0.125 0  0.59375 0.125 0  0.625 0.125 0  0.65625 0.125 0  0.6875 0.125 0  0.71875 0.125 0  0.75 0.125 0  0.78125 0.125 0  0.8125 0.125 0  0.84375 0.125 0  0.875 0.125 0  0.90625 0.125 0  0.9375 0.125 0  0.96875 0.125 0  1 0.125 0  0 0.15625 0  0.03125 0.15625 0  0.0625 0.15625 0  0.09375 0.15625 0  0.125 0.15625 0  0.15625 0.15625 0  0.1875 0.15625 0  0.21875 0.15625 0  0.25 0.15625 0  0.28125 0.15625 0  0.3125 0.15625 0  0.34375 0.15625 0  0.375 0.15625 0  0.40625 0.15625 0  0.4375 0.15625 0  0.46875 0.15625 0  0.5 0.15625 0  0.53125 0.15625 0  0.5625 0.15625 0  0.59375 0.15625 0  0.625 0.15625 0  0.65625 0.15625 0  0.6875 0.15625 0  0.71875 0.15625 0  0.75 0.15625 0  0.78125 0.15625 0  0.8125 0.15625 0  0.84375 0.15625 0  0.875 0.15625 0  0.90625 0.15625 0  0.9375 0.15625 0  0.96875 0.15625 0  1 0.15625 0  0 0.1875 0  0.03125 0.1875 0  0.0625 0.1875 0  0.09375 0.1875 0  0.125 0.1875 0  0.15625 0.1875 0  0.1875 0.1875 0  0.21875 0.1875 0  0.25 0.1875 0  0.28125 0.1875 0  0.3125 0.1875 0  0.34375 0.1875 0  0.375 0.1875 0  0.40625 0.1875 0  0.4375 0.1875 0  0.46875 0.1875 0  0.5 0.1875 0  0.53125 0.1875 0  0.5625 0.1875 0  0.59375 0.1875 0  0.625 0.1875 0  0.65625 0.1875 0  0.6875 0.1875 0  0.71875 0.1875 0  0.75 0.1875 0  0.78125 0.1875 0  0.8125 0.1875 0  0.84375 0.1875 0  0.875 0.1875 0  0.90625 0.1875 0  0.9375 0.1875 0  0.96875 0.1875 0  1 0.1875 0  0 0.21875 0  0.03125 0.21875 0  0.0625 0.21875 0  0.09375 0.21875 0  0.125 0.21875 0  0.15625 0.21875 0  0.1875 0.21875 0  0.21875 0.21875 0  0.25 0.21875 0  0.28125 0.21875 0  0.3125 0.21875 0  0.34375 0.21875 0  0.375 0.21875 0  0.40625 0.21875 0  0.4375 0.21875 0  0.46875 0.21875 0  0.5 0.21875 0  0.53125 0.21875 0  0.5625 0.21875 0  0.59375 0.21875 0  0.625 0.21875 0  0.65625 0.21875 0  0.6875 0.21875 0  0.71875 0.21875 0  0.75 0.21875 0  0.78125 0.21875 0  0.8125 0.21875 0  0.84375 0.21875 0  0.875 0.21875 0  0.90625 0.21875 0  0.9375 0.21875 0  0.96875 0.21875 0  1 0.21875 0  0 0.25 0  0.03125 0.25 0  0.0625 0.25 0  0.09375 0.25 0  0.125 0.25 0  0.15625 0.25 0  0.1875 0.25 0  0.21875 0.25 0  0.25 0.25 0  0.28125 0.25 0  0.3125 0.25 0  0.34375 0.25 0  0.375 0.25 0  0.40625 0.25 0  0.4375 0.25 0  0.46875 0.25 0  0.5 0.25 0  0.53125 0.25 0  0.5625 0.25 0  0.59375 0.25 0  0.625 0.25 0  0.65625 0.25 0  0.6875 0.25 0  0.71875 0.25 0  0.75 0.25 0  0.78125 0.25 0  0.8125 0.25 0  0.84375 0.25 0  0.875 0.25 0  0.90625 0.25 0  0.9375 0.25 0  0.96875 0.25 0  1 0.25 0  0 0.28125 0  0.03125 0.28125 0  0.0625 0.28125 0  0.09375 0.28125 0  0.125 0.28125 0  0.15625 0.28125 0  0.1875 0.28125 0  0.21875 0.28125 0  0.25 0.28125 0  0.28125 0.28125 0  0.3125 0.28125 0  0.34375 0.28125 0  0.375 0.28125 0  0.40625 0.28125 0  0.4375 0.28125 0  0.46875 0.28125 0  0.5 0.28125 0  0.53125 0.28125 0  0.5625 0.28125 0  0.59375 0.28125 0  0.625 0.28125 0  0.65625 0.28125 0  0.6875 0.28125 0  0.71875 0.28125 0  0.75 0.28125 0  0.78125 0.28125 0  0.8125 0.28125 0  0.84375 0.28125 0  0.875 0.28125 0  0.90625 0.28125 0  0.9375 0.28125 0  0.96875 0.28125 0  1 0.28125 0  0 0.3125 0  0.03125 0.3125 0  0.0625 0.3125 0  0.09375 0.3125 0  0.125 0.3125 0  0.15625 0.3125 0  0.1875 0.3125 0  0.21875 0.3125 0  0.25 0.3125 0  0.28125 0.3125 0  0.3125 0.3125 0  0.34375 0.3125 0  0.375 0.3125 0  0.40625 0.3125 0  0.4375 0.3125 0  0.46875 0.3125 0  0.5 0.3125 0  0.53125 0.3125 0  0.5625 0.3125 0  0.59375 0.3125 0  0.625 0.3125 0  0.65625 0.3125 0  0.6875 0.3125 0  0.71875 0.3125 0  0.75 0.3125 0  0.78125 0.3125 0  0.8125 0.3125 0  0.84375 0.3125 0  0.875 0.3125 0  0.90625 0.3125 0  0.9375 0.3125 0  0.96875 0.3125 0  1 0.3125 0  0 0.34375 0  0.03125 0.34375 0  0.0625 0.34375 0  0.09375 0.34375 0  0.125 0.34375 0  0.15625 0.34375 0  0.1875 0.34375 0  0.21875 0.34375 0  0.25 0.34375 0  0.28125 0.34375 0  0.3125 0.34375 0  0.34375 0.34375 0  0.375 0.34375 0  0.40625 0.34375 0  0.4375 0.34375 0  0.46875 0.34375 0  0.5 0.34375 0  0.53125 0.34375 0  0.5625 0.34375 0  0.59375 0.34375 0  0.625 0.34375 0  0.65625 0.34375 0  0.6875 0.34375 0  0.71875 0.34375 0  0.75 0.34375 0  0.78125 0.34375 0  0.8125 0.34375 0  0.84375 0.34375 0  0.875 0.34375 0  0.90625 0.34375 0  0.9375 0.34375 0  0.96875 0.34375 0  1 0.34375 0  0 0.375 0  0.03125 0.375 0  0.0625 0.375 0  0.09375 0.375 0  0.125 0.375 0  0.15625 0.375 0  0.1875 0.375 0  0.21875 0.375 0  0.25 0.375 0  0.28125 0.375 0  0.3125 0.375 0  0.34375 0.375 0  0.375 0.375 0  0.40625 0.375 0  0.4375 0.375 0  0.46875 0.375 0  0.5 0.375 0  0.53125 0.375 0  0.5625 0.375 0  0.59375 0.375 0  0.625 0.375 0  0.65625 0.375 0  0.6875 0.375 0  0.71875 0.375 0  0.75 0.375 0  0.78125 0.375 0  0.8125 0.375 0  0.84375 0.375 0  0.875 0.375 0  0.90625 0.375 0  0.9375 0.375 0  0.96875 0.375 0  1 0.375 0  0 0.40625 0  0.03125 0.40625 0  0.0625 0.40625 0  0.09375 0.40625 0  0.125 0.40625 0  0.15625 0.40625 0  0.1875 0.40625 0  0.21875 0.40625 0  0.25 0.40625 0  0.28125 0.40625 0  0.3125 0.40625 0  0.34375 0.40625 0  0.375 0.40625 0  0.40625 0.40625 0  0.4375 0.40625 0  0.46875 0.40625 0  0.5 0.40625 0  0.53125 0.40625 0  0.5625 0.40625 0  0.59375 0.40625 0  0.625 0.40625 0  0.65625 0.40625 0  0.6875 0.40625 0  0.71875 0.40625 0  0.75 0.40625 0  0.78125 0.40625 0  0.8125 0.40625 0  0.84375 0.40625 0  0.875 0.40625 0  0.90625 0.40625 0  0.9375 0.40625 0  0.96875 0.40625 0  1 0.40625 0  0 0.4375 0  0.03125 0.4375 0  0.0625 0.4375 0  0.09375 0.4375 0  0.125 0.4375 0  0.15625 0.4375 0  0.1875 0.4375 0  0.21875 0.4375 0  0.25 0.4375 0  0.28125 0.4375 0  0.3125 0.4375 0  0.34375 0.4375 0  0.375 0.4375 0  0.40625 0.4375 0  0.4375 0.4375 0  0.46875 0.4375 0  0.5 0.4375 0  0.53125 0.4375 0  0.5625 0.4375 0  0.59375 0.4375 0  0.625 0.4375 0  0.65625 0.4375 0  0.6875 0.4375 0  0.71875 0.4375 0  0.75 0.4375 0  0.78125 0.4375 0  0.8125 0.4375 0  0.84375 0.4375 0  0.875 0.4375 0  0.90625 0.4375 0  0.9375 0.4375 0  0.96875 0.4375 0  1 0.4375 0  0 0.46875 0  0.03125 0.46875 0  0.0625 0.46875 0  0.09375 0.46875 0  0.125 0.46875 0  0.15625 0.46875 0  0.1875 0.46875 0  0.21875 0.46875 0  0.25 0.46875 0  0.28125 0.46875 0  0.3125 0.46875 0  0.34375 0.46875 0  0.375 0.46875 0  0.40625 0.46875 0  0.4375 0.46875 0  0.46875 0.46875 0  0.5 0.46875 0  0.53125 0.46875 0  0.5625 0.46875 0  0.59375 0.46875 0  0.625 0.46875 0  0.65625 0.46875 0  0.6875 0.46875 0  0.71875 0.46875 0  0.75 0.46875 0  0.78125 0.46875 0  0.8125 0.46875 0  0.84375 0.46875 0  0.875 0.46875 0  0.90625 0.46875 0  0.9375 0.46875 0  0.96875 0.46875 0  1 0.46875 0  0 0.5 0  0.03125 0.5 0  0.0625 0.5 0  0.09375 0.5 0  0.125 0.5 0  0.15625 0.5 0  0.1875 0.5 0  0.21875 0.5 0  0.25 0.5 0  0.28125 0.5 0  0.3125 0.5 0  0.34375 0.5 0  0.375 0.5 0  0.40625 0.5 0  0.4375 0.5 0  0.46875 0.5 0  0.5 0.5 0  0.53125 0.5 0  0.5625 0.5 0  0.59375 0.5 0  0.625 0.5 0  0.65625 0.5 0  0.6875 0.5 0  0.71875 0.5 0  0.75 0.5 0  0.78125 0.5 0  0.8125 0.5 0  0.84375 0.5 0  0.875 0.5 0  0.90625 0.5 0  0.9375 0.5 0  0.96875 0.5 0  1 0.5 0  0 0.53125 0  0.03125 0.53125 0  0.0625 0.53125 0  0.09375 0.53125 0  0.125 0.53125 0  0.15625 0.53125 0  0.1875 0.53125 0  0.21875 0.53125 0  0.25 0.53125 0  0.28125 0.53125 0  0.3125 0.53125 0  0.34375 0.53125 0  0.375 0.53125 0  0.40625 0.53125 0  0.4375 0.53125 0  0.46875 0.53125 0  0.5 0.53125 0  0.53125 0.53125 0  0.5625 0.53125 0  0.59375 0.53125 0  0.625 0.53125 0  0.65625 0.53125 0  0.6875 0.53125 0  0.71875 0.53125 0  0.75 0.53125 0  0.78125 0.531
[...]
<PointData  Scalars="phi"> 
<DataArray  type="Float64"  Name="phi"  format="ascii">0.0000000000000000e+00  0.0000000000000000e+00  0.0000000000000000e+00  0.0000000000000000e+00  0.0000000000000000e+00  0.0000000000000000e+00  0.0000000000000000e+00  0.0000000000000000e+00  0.0000000000000000e+00  0.0000000000000000e+00  0.0000000000000000e+00  0.0000000000000000e+00  0.0000000000000000e+00  0.0000000000000000e+00  0.0000000000000000e+00  0.0000000000000000e+00  0.0000000000000000e+00  0.0000000000000000e+00  0.0000000000000000e+00  0.0000000000000000e+00  0.0000000000000000e+00  0.0000000000000000e+00  0.0000000000000000e+00  0.0000000000000000e+00  0.0000000000000000e+00  0.0000000000000000e+00  0.0000000000000000e+00  0.0000000000000000e+00  0.0000000000000000e+00  0.0000000000000000e+00  0.0000000000000000e+00  0.0000000000000000e+00  0.0000000000000000e+00  0.0000000000000000e+00  -7.3620896862999897e-17  9.1487248999189735e-07  3.6255022741523353e-06  8.9279214068900119e-06  1.7492606649886909e-05  2.9829632083601377e-05  4.6260726705310451e-05  6.6899205437389862e-05  9.1638518037174388e-05  1.2014986514736917e-04  1.5188899926527145e-04  1.8611198294750299e-04  2.2189933452137708e-04  2.5818766807983814e-04  2.9380764307537945e-04  3.2752679120043966e-04  3.5809559432660898e-04  3.8429505474306836e-04  4.0498393298890991e-04  4.1914383174932617e-04  4.2592037631627858e-04  4.2465887985398010e-04  4.1493307905679294e-04  3.9656577348808259e-04  3.6964048689673318e-04  3.3450357233430082e-04  2.9175647463461281e-04  2.4223808447606154e-04  1.8699712379615686e-04  1.2725387373804158e-04  6.4347897183781287e-05  0.0000000000000000e+00  0.0000000000000000e+00  -9.1487249028434586e-07  -2.9052062685946114e-16  4.5118019310908240e-06  1.4216375666038883e-05  3.0458423562760717e-05  5.4262291970924871e-05  8.6276358795244937e-05  1.2673305082728294e-04  1.7542601121426499e-04  2.3170532758599600e-04  2.9449106240352134e-04  3.6230463505182214e-04  4.3331692189397749e-04  5.0541129501252622e-04  5.7625923911440999e-04  6.4340569239957149e-04  7.0436087069466568e-04  7.5669507008463660e-04  7.9813281200043088e-04  8.2664270131788163e-04  8.4051951203229273e-04  8.3845529038965362e-04  8.1959666019222892e-04  7.8358601179322391e-04  7.3058483126171836e-04  6.6127804783093123e-04  5.7685890290055529e-04  4.7899440868216217e-04  3.6977186685272932e-04  2.5162699928164091e-04  1.2725387373804187e-04  0.0000000000000000e+00  0.0000000000000000e+00  -3.6255022745864143e-06  -4.5118019319534178e-06  -6.4037213494008956e-16  1.2308240282416805e-05  3.4435640438522688e-05  6.7926580586167616e-05  1.1376439700820534e-04  1.7231184664277642e-04  2.4327705754872942e-04  3.2570634704763351e-04  4.1800428042200325e-04  5.1798030677610216e-04  6.2292028846320764e-04  7.2968027801827888e-04  8.3479903043687893e-04  9.3462500331204261e-04  1.0254530218109974e-03  1.1036653923839415e-03  1.1658720538697508e-03  1.2090443649082655e-03  1.2306373417420940e-03  1.2286955718071300e-03  1.2019386190729787e-03  1.1498224821754200e-03  1.0725745337581999e-03  9.7120031968340125e-04  8.4746158371941990e-04  7.0382585638254012e-04  5.4338886212807597e-04  3.6977186685273073e-04  1.8699712379615806e-04  0.0000000000000000e+00  0.0000000000000000e+00  -8.9279214074605851e-06  -1.4216375667172863e-05  -1.2308240284100632e-05  -1.1069604571605013e-15  2.5414054305087951e-05  6.6006567184911144e-05  1.2310805655437509e-04  1.9722829244036102e-04  2.8801123006717529e-04  3.9422535063907127e-04  5.1378992000454483e-04  6.4383630193510968e-04  7.8080211356788311e-04  9.2055473914589192e-04  1.0585395747479693e-03  1.1899474062230329e-03  1.3098945631277456e-03  1.4136089728895404e-03  1.4966149820142415e-03  1.5549098250391543e-03  1.5851249065677495e-03  1.5846656059034176e-03  1.5518240959879600e-03  1.4858606574019938e-03  1.3870501245122450e-03  1.2566913782366192e-03  1.0970791486817762e-03  9.1143876456828746e-04  7.0382585638254446e-04  4.7899440868216683e-04  2.4223808447606442e-04  0.0000000000000000e+00  0.0000000000000000e+00  -1.7492606650587327e-05  -3.0458423564152907e-05  -3.4435640440590058e-05  -2.5414054307806290e-05  -1.6688924825430568e-15  4.4416996701080721e-05  1.0952967271662411e-04  1.9601588756435048e-04  3.0348277371261860e-04  4.3045449299517109e-04  5.7440424953652495e-04  7.3182951093068169e-04  8.9836772300290208e-04  1.0689482343223741e-03  1.2379747360164843e-03  1.3995313254756719e-03  1.5476043659972748e-03  1.6763116749138806e-03  1.7801302553473062e-03  1.8541138039670679e-03  1.8940915785527895e-03  1.8968408813194830e-03  1.8602263809744911e-03  1.7833007210953104e-03  1.6663622977901465e-03  1.5109676818340950e-03  1.3198978525537351e-03  1.0970791486817856e-03  8.4746158371943139e-04  5.7685890290056548e-04  2.9175647463461850e-04  0.0000000000000000e+00  0.0000000000000000e+00  -2.9829632084423615e-05  -5.4262291972559252e-05  -6.7926580588594833e-05  -6.6006567188102750e-05  -4.4416996704999665e-05  -2.3006945991822414e-15  6.9315909107638734e-05  1.6440084752908916e-04  2.8485720673830748e-04  4.2900468799941111e-04  5.9391751978345186e-04  7.7551264038326932e-04  9.6868566043090631e-04  1.1674895674365162e-03  1.3653494694852671e-03  1.5553052625904935e-03  1.7302730009056567e-03  1.8833149941552560e-03  2.0079082818123448e-03  2.0982011535988494e-03  2.1492478004453927e-03  2.1572119735641777e-03  2.1195316717041481e-03  2.0350383247544211e-03  1.9040256413055357e-03  1.7282651759494600e-03  1.5109676818341107e-03  1.2566913782366415e-03  9.7120031968342380e-04  6.6127804783094901e-04  3.3450357233431047e-04  0.0000000000000000e+00  0.0000000000000000e+00  -4.6260726706245142e-05  -8.6276358797102935e-05  -1.1376439701096482e-04  -1.2310805655800372e-04  -1.0952967272107977e-04  -6.9315909112870335e-05  -2.9741060353734918e-15  9.9506205213454078e-05  2.2883570760668450e-04  3.8614851897845266e-04  5.6817344602818471e-04  7.7030813011236114e-04  9.8677372272167724e-04  1.2108184580252805e-03  1.4349624798212753e-03  1.6512746648028897e-03  1.8516709199377888e-03  2.0282225681740292e-03  2.1734630074097083e-03  2.2806808497541288e-03  2.3441882212784757e-03  2.3595538091373599e-03  2.3237915490749361e-03  2.2354975028465764e-03  2.0949294201307641e-03  1.9040256413055574e-03  1.6663622977901825e-03  1.3870501245122858e-03  1.0725745337582370e-03  7.3058483126174655e-04  3.6964048689674793e-04  0.0000000000000000e+00  0.0000000000000000e+00  -6.6899205438426536e-05  -1.2673305082934369e-04  -1.7231184664583696e-04  -1.9722829244438580e-04  -1.9601588756929287e-04  -1.6440084753489213e-04  -9.9506205220052072e-05  -3.6595765215030680e-15  1.3381840151050625e-04  2.9999743488878789e-04  4.9497898122950583e-04  7.1370902345694199e-04  9.4980930111429303e-04  1.1958035841731919e-03  1.4433900610432491e-03  1.6837495325983907e-03  1.9078776925528580e-03  2.1069288097784644e-03  2.2725576478449662e-03  2.3972464802689492e-03  2.4746045864474553e-03  2.4996286235642075e-03  2.4689137260262440e-03  2.3808070315613572e-03  2.2354975028466076e-03  2.0350383247544736e-03  1.7833007210953729e-03  1.4858606574020580e-03  1.1498224821754755e-03  7.8358601179326468e-04  3.9656577348810417e-04  0.0000000000000000e+00  0.0000000000000000e+00  -9.1638518038301389e-05  -1.7542601121650555e-04  -2.4327705755205716e-04  -2.8801123007155162e-04  -3.0348277371799266e-04  -2.8485720674461780e-04  -2.2883570761385942e-04  -1.3381840151846516e-04  -4.3272589562487173e-15  1.7060615498956753e-04  3.7421683583254220e-04  6.0539884840627063e-04  8.5725576034776144e-04  1.1216744838868711e-03  1.3896224320595458e-03  1.6514839924665664e-03  1.8974235167575019e-03  2.1177609666557344e-03  2.3033458298483923e-03  2.4459149423615989e-03  2.5384204279425607e-03  2.5753150682487820e-03  2.5527840089193429e-03  2.4689137260262861e-03  2.3237915490750072e-03  2.1195316717042400e-03  1.8602263809745878e-03  1.5518240959880524e-03  1.2019386190730568e-03  8.1959666019228508e-04  4.1493307905682243e-04  0.0000000000000000e+00  0.0000000000000000e+00  -1.2014986514857450e-04  -2.3170532758839209e-04  -3.2570634705119208e-04  -3.9422535064375134e-04  -4.3045449300091834e-04  -4.2900468800615972e-04  -3.8614851898612567e-04  -2.9999743489729931e-04  -1.7060615499882303e-04  -4.9490588078409715e-15  2.0787616592470997e-04  4.4728567514474150e-04  7.1089980844733888e-04  9.9006210057869066e-04  1.2751072346284891e-03  1.5557224330962531e-03  1.8213375871300288e-03  2.0615292248846390e-03  2.2664228495719863e-03  2.4270782001230024e-03  2.5358426022941204e-03  2.5866587627158730e-03  2.5753150682488370e-03  2.4996286235643020e-03  2.3595538091374818e-03  2.1572119735643138e-03  1.8968408813196200e-03  1.5846656059035429e-03  1.2286955718072336e-03  8.3845529038972712e-04  4.2465887985401838e-04  0.0000000000000000e+00  0.0000000000000000e+00  -1.5188899926654197e-04  -2.9449106240604715e-04  -4.1800428042575459e-04  -5.1378992000947850e-04  -5.7440424954258390e-04  -5.9391751979056640e-04  -5.6817344603627350e-04  -4.9497898123847793e-04  -3.7421683584229883e-04  -2.0787616593514400e-04  -5.4993168834226428e-15  2.4344881615335324e-04  5.1479823081737196e-04  8.0494626708415445e-04  1.1036984238190785e-03  1.4001503871727459e-03  1.6831014718183372e-03  1.9414829976075873e-03  2.1647851988348312e-03  2.3434662836916884e-03  2.4693279106564256e-03  2.5358426022941854e-03  2.5384204279426787e-03  2.4746045864476101e-03  2.3441882212786543e-03  2.1492478004455783e-03  1.8940915785529691e-03  1.5851249065679108e-03  1.2306373417422258e-03  8.4051951203238553e-04  4.2592037631632650e-04  0.0000000000000000e+00  0.0000000000000000e+00  -1.8611198294882540e-04  -3.6230463505445090e-04  -5.1798030678000670e-04  -6.4383630194024468e-04  -7.3182951093698741e-04  -7.7551264039067377e-04  -7.7030813012077975e-04  -7.1370902346628022e-04  -6.0539884841642451e-04  -4.4728567515560065e-04  -2.4344881616479970e-04  -5.9561882786880578e-15  2.7513585081496441e-04  5.7251200140554664e-04  8.8151241593459567e-04  1.1907519972911443e-03  1.4885092936071168e-03  1.7631751350031290e-03  2.0037000224598909e-03  2.2000231082418735e-03  2.3434662836917643e-03  2.4270782001231416e-03  2.4459149423617867e-03  2.3972464802691712e-03  2.2806808497543691e-03  2.0982011535990910e-03  1.8541138039672961e-03  1.5549098250393547e-03  1.2090443649084273e-03  8.2664270131799483e-04  4.1914383174938440e-04  0.0000000000000000e+00  0.0000000000000000e+00  -2.2189933452273748e-04  -4.3331692189668215e-04  -6.2292028846722483e-04  -7.8080211357316556e-04  -8.9836772300938908e-04  -9.6868566043852369e-04  -9.8677372273033785e-04  -9.4980930112389928e-04  -8.5725576035820708e-04  -7.1089980845850942e-04  -5.1479823082914650e-04  -2.7513585082721736e-04  -6.3012939701983413e-15  3.0091999747338614e-04  6.1669692451084648e-04  9.3557949160017807e-04  1.2454400843485327e-03  1.5342393187063315e-03  1.7904896158412445e-03  2.0037000224599768e-03  2.1647851988349912e-03  2.2664228495722061e-03  2.3033458298486586e-03  2.2725576478452585e-03  2.1734630074100136e-03  2.0079082818126458e-03  1.7801302553475820e-03  1.4966149820144809e-03  1.1658720538699435e-03  7.9813281200056554e-04  4.0498393298897897e-04  0.0000000000000000e+00  0.0000000000000000e+00  -2.5818766808122256e-04  -5.0541129501527858e-04  -7.2968027802236698e-04  -9.2055473915126805e-04  -1.0689482343289765e-03  -1.1674895674442687e-03  -1.2108184580340950e-03  -1.1958035841829683e-03  -1.1216744838975009e-03  -9.9006210059005809e-04  -8.0494626709613662e-04  -5.7251200141801497e-04  -3.0091999748620943e-04  -6.5233861980169808e-15  3.1912127364135828e-04  6.4444347410871016e-04  9.6355104957070864e-04  1.2640892270796157e-03  1.5342393187064260e-03  1.7631751350033072e-03  1.9414829976078371e-03  2.0615292248849452e-03  2.1177609666560805e-03  2.1069288097788339e-03  2.0282225681744035e-03  1.8833149941556164e-03  1.6763116749142102e-03  1.4136089728898245e-03  1.1036653923841681e-03  7.5669507008479381e-04  3.8429505474314859e-04  0.0000000000000000e+00  0.0000000000000000e+00  -2.9380764307677400e-04  -5.7625923911718262e-04  -8.3479903044099738e-04  -1.0585395747533849e-03  -1.2379747360231369e-03  -1.3653494694930782e-03  -1.4349624798301553e-03  -1.4433900610530976e-03  -1.3896224320702525e-03  -1.2751072346399396e-03  -1.1036984238311485e-03  -8.8151241594715398e-04  -6.1669692452376149e-04  -3.1912127365449783e-04  -6.6157933159315851e-15  3.2853587591815867e-04  6.5390351132943447e-04  9.6355104957080839e-04  1.2454400843487257e-03  1.4885092936073900e-03  1.6831014718186772e-03  1.8213375871304217e-03  1.8974235167579304e-03  1.9078776925533030e-03  1.8516709199382312e-03  1.7302730009060774e-03  1.5476043659976551e-03  1.3098945631280726e-03  1.0254530218112557e-03  7.0436087069484479e-04  3.5809559432670006e-04  0.0000000000000000e+00  0.0000000000000000e+00  -3.2752679120183091e-04  -6.4340569240233739e-04  -9.3462500331615065e-04  -1.1899474062284352e-03  -1.3995313254823068e-03  -1.5553052625982850e-03  -1.6512746648117472e-03  -1.6837495326082149e-03  -1.6514839924772476e-03  -1.5557224331076741e-03  -1.4001503871847827e-03  -1.1907519973036683e-03  -9.3557949161305752e-04  -6.4444347412181296e-04  -3.2853587593135254e-04  -6.5776689925034497e-15  3.2853587591826102e-04  6.4444347410891074e-04  9.3557949160046928e-04  1.1907519972915127e-03  1.4001503871731778e-03  1.5557224330967332e-03  1.6514839924670760e-03  1.6837495325989099e-03  1.6512746648033988e-03  1.5553052625909740e-03  1.3995313254761043e-03  1.1899474062233998e-03  9.3462500331233165e-04  6.4340569239977076e-04  3.2752679120054114e-04  0.0000000000000000e+00  0.0000000000000000e+00  -3.5809559432798354e-04  -7.0436087069739874e-04  -1.0254530218150560e-03  -1.3098945631330834e-03  -1.5476043660038290e-03  -1.7302730009133532e-03  -1.8516709199465397e-03  -1.9078776925625634e-03  -1.8974235167680546e-03  -1.8213375871413114e-03  -1.6831014718302266e-03  -1.4885092936194866e-03  -1.2454400843612530e-03  -9.6355104958364838e-04  -6.5390351134246333e-04  -3.2853587593125073e-04  -6.4130965839838618e-15  3.1912127364165714e-04  6.1669692451123235e-04  8.8151241593505581e-04  1.1036984238195981e-03  1.2751072346290518e-03  1.3896224320601312e-03  1.4433900610438372e-03  1.4349624798218469e-03  1.3653494694858019e-03  1.2379747360169633e-03  1.0585395747483735e-03  8.3479903043719617e-04  5.7625923911462792e-04  2.9380764307549031e-04  0.0000000000000000e+00  0.0000000000000000e+00  -3.8429505474441331e-04  -7.5669507008731024e-04  -1.1036653923879125e-03  -1.4136089728947628e-03  -1.6763116749202935e-03  -1.8833149941627860e-03  -2.0282225681825914e-03  -2.1069288097879612e-03  -2.1177609666660616e-03  -2.0615292248956775e-03  -1.9414829976192190e-03  -1.7631751350152291e-03  -1.5342393187187733e-03  -1.2640892270922713e-03  -9.6355104958355058e-04  -6.4444347412161401e-04  -3.1912127365419935e-04  -6.1316856649388113e-15  3.0091999747386124e-04  5.7251200140609200e-04  8.0494626708475466e-04  9.9006210057932796e-04  1.1216744838875262e-03  1.1958035841738430e-03  1.2108184580259078e-03  1.1674895674370985e-03  1.0689482343228928e-03  9.2055473914632929e-04  7.2968027801862041e-04  5.0541129501276063e-04  2.5818766807995724e-04  0.0000000000000000e+00  0.0000000000000000e+00  -4.0498393299021247e-04  -7.9813281200302060e-04  -1.1658720538735977e-03  -1.4966149820193004e-03  -1.7801302553535187e-03  -2.0079082818196402e-03  -2.1734630074180029e-03  -2.2725576478541641e-03  -2.3033458298583952e-03  -2.2664228495826782e-03  -2.1647851988460969e-03  -2.0037000224716094e-03  -1.7904896158532934e-03  -1.5342393187186805e-03  -1.2454400843610639e-03  -9.3557949161276912e-04  -6.1669692452337552e-04  -3.0091999748573379e-04  -5.7464471255673715e-15  2.7513585081558490e-04  5.1479823081804199e-04  7.1089980844804015e-04  8.5725576034847420e-04  9.4980930111499581e-04  9.8677372272234967e-04  9.6868566043152755e-04  8.9836772300345286e-04  7.8080211356834628e-04  6.2292028846356890e-04  4.3331692189422491e-04  2.2189933452150258e-04  0.0000000000000000e+00  0.0000000000000000e+00  -4.1914383175057474e-04  -8.2664270132036424e-04  -1.2090443649119533e-03  -1.5549098250440038e-03  -1.8541138039730233e-03  -2.0982011536058425e-03  -2.2806808497620799e-03  -2.3972464802777664e-03  -2.4459149423711845e-03  -2.4270782001332507e-03  -2.3434662837024862e-03  -2.2000231082531059e-03  -2.0037000224715248e-03  -1.7631751350150526e-03  -1.4885092936192143e-03  -1.1907519973032993e-03  -8.8151241594669146e-04  -5.7251200141746755e-04  -2.7513585082659562e-04  -5.2741736740872520e-15  2.4344881615407911e-04  4.4728567514549307e-04  6.0539884840702773e-04  7.1370902345768402e-04  7.7030813011306695e-04  7.7551264038391854e-04  7.3182951093125523e-04  6.4383630193559063e-04  5.1798030677647621e-04  3.6230463505207791e-04  1.8611198294763283e-04  0.0000000000000000e+00  0.0000000000000000e+00  -4.2592037631746221e-04  -8.4051951203464653e-04  -1.2306373417455894e-03  -1.5851249065723465e-03  -1.8940915785584339e-03  -2.1492478004520210e-03  -2.3441882212860126e-03  -2.4746045864558136e-03  -2.5384204279516468e-03  -2.5358426023038335e-03  -2.4693279106666600e-03  -2.3434662837024112e-03  -2.1647851988459399e-03  -1.9414829976189692e-03  -1.6831014718298835e-03  -1.4001503871843477e-03  -1.1036984238306242e-03  -8.0494626709553380e-04  -5.1479823082847495e-04  -2.4344881616407340e-04  -4.7343636378007221e-15  2.0787616592549547e-04  3.7421683583332825e-04  4.9497898123027203e-04  5.6817344602891069e-04  5.9391751978411713e-04  5.7440424953711096e-04  5.1378992000503478e-04  4.1800428042238359e-04  2.9449106240378138e-04  1.5188899926540323e-04  0.0000000000000000e+00  0.0000000000000000e+00  -4.2465887985508848e-04  -8.3845529039185736e-04  -1.2286955718104036e-03  -1.5846656059077232e-03  -1.8968408813247704e-03  -2.1572119735703871e-03  -2.3595538091444189e-03  -2.4996286235720346e-03  -2.5753150682572908e-03  -2.5866587627249690e-03  -2.5358426023037693e-03  -2.4270782001331124e-03  -2.2664228495824579e-03  -2.0615292248953700e-03  -1.8213375871409154e-03  -1.5557224331071919e-03  -1.2751072346393738e-03  -9.9006210058941841e-04  -7.1089980845780664e-04  -4.4728567515484844e-04  -2.0787616593435834e-04  -4.1477803746710652e-15  1.7060615499036523e-04  2.9999743488956222e-04  3.8614851897918309e-04  4.2900468800007887e-04  4.3045449299575808e-04  3.9422535063956122e-04  3.2570634704801342e-04  2.3170532758625529e-04  1.2014986514750057e-04  0.0000000000000000e+00  0.0000000000000000e+00  -4.1493307905781686e-04  -8.1959666019426440e-04  -1.2019386190760025e-03  -1.5518240959919369e-03  -1.8602263809793761e-03  -2.1195316717098848e-03  -2.3237915490814556e-03  -2.4689137260334739e-03  -2.5527840089272012e-03  -2.5753150682572392e-03  -2.5384204279515314e-03  -2.4459149423709968e-03  -2.3033458298581267e-03  -2.1177609666657091e-03  -1.8974235167676231e-03  -1.6514839924767371e-03  -1.3896224320696648e-03  -1.1216744838968441e-03  -8.5725576035749302e-04  -6.0539884841566687e-04  -3.7421683584151235e-04  -1.7060615499802533e-04  -3.5366841784285849e-15  1.3381840151127072e-04  2.2883570760740386e-04  2.8485720673896347e-04  3.0348277371319409e-04  2.8801123006765516e-04  2.4327705754910082e-04  1.7542601121451831e-04  9.1638518037302785e-05  0.0000000000000000e+00  0.0000000000000000e+00  -3.9656577348901360e-04  -7.8358601179507508e-04  -1.1498224821781698e-03  -1.4858606574056103e-03  -1.7833007210997522e-03  -2.0350383247596361e-03  -2.2354975028525052e-03  -2.3808070315679318e-03  -2.4689137260334340e-03  -2.4996286235719417e-03  -2.4746045864556605e-03  -2.3972464802775452e-03  -2.2725576478538692e-03  -2.1069288097875882e-03  -1.9078776925621154e-03  -1.6837495326076919e-03  -1.4433900610525052e-03  -1.1958035841823146e-03  -9.4980930112319455e-04  -7.1370902346553689e-04  -4.9497898123771139e-04  -2.9999743489652513e-04  -1.3381840151770061e-04  -2.9223700678789962e-15  9.9506205