<?xml version="1.0"?>
<VTKFile type="UnstructuredGrid"  version="0.1"  >
<UnstructuredGrid>
<Piece  NumberOfPoints="1089" NumberOfCells="2048">
<Points>
<DataArray  type="Float64"  NumberOfComponents="3"  format="ascii">0 0 0  0.03125 0 0  0.0625 0 0  0.09375 0 0  0.125 0 0  0.15625 0 0  0.1875 0 0  0.21875 0 0  0.25 0 0  0.28125 0 0  0.3125 0 0  0.34375 0 0  0.375 0 0  0.40625 0 0  0.4375 0 0  0.46875 0 0  0.5 0 0  0.53125 0 0  0.5625 0 0  0.59375 0 0  0.625 0 0  0.65625 0 0  0.6875 0 0  0.71875 0 0  0.75 0 0  0.78125 0 0  0.8125 0 0  0.84375 0 0  0.875 0 0  0.90625 0 0  0.9375 0 0  0.96875 0 0  1 0 0  0 0.03125 0  0.03125 0.03125 0  0.0625 0.03125 0  0.09375 0.03125 0  0.125 0.03125 0  0.15625 0.03125 0  0.1875 0.03125 0  0.21875 0.03125 0  0.25 0.03125 0  0.28125 0.03125 0  0.3125 0.03125 0  0.34375 0.03125 0  0.375 0.03125 0  0.40625 0.03125 0  0.4375 0.03125 0  0.46875 0.03125 0  0.5 0.03125 0  0.53125 0.03125 0  0.5625 0.03125 0  0.59375 0.03125 0  0.625 0.03125 0  0.65625 0.03125 0  0.6875 0.03125 0  0.71875 0.03125 0  0.75 0.03125 0  0.78125 0.03125 0  0.8125 0.03125 0  0.84375 0.03125 0  0.875 0.03125 0  0.90625 0.03125 0  0.9375 0.03125 0  0.96875 0.03125 0  1 0.03125 0  0 0.0625 0  0.03125 0.0625 0  0.0625 0.0625 0  0.09375 0.0625 0  0.125 0.0625 0  0.15625 0.0625 0  0.1875 0.0625 0  0.21875 0.0625 0  0.25 0.0625 0  0.28125 0.0625 0  0.3125 0.0625 0  0.34375 0.0625 0  0.375 0.0625 0  0.40625 0.0625 0  0.4375 0.0625 0  0.46875 0.0625 0  0.5 0.0625 0  0.53125 0.0625 0  0.5625 0.0625 0  0.59375 0.0625 0  0.625 0.0625 0  0.65625 0.0625 0  0.6875 0.0625 0  0.71875 0.0625 0  0.75 0.0625 0  0.78125 0.0625 0  0.8125 0.0625 0  0.84375 0.0625 0  0.875 0.0625 0  0.90625 0.0625 0  0.9375 0.0625 0  0.96875 0.0625 0  1 0.0625 0  0 0.09375 0  0.03125 0.09375 0  0.0625 0.09375 0  0.09375 0.09375 0  0.125 0.09375 0  0.15625 0.09375 0  0.1875 0.09375 0  0.21875 0.09375 0  0.25 0.09375 0  0.28125 0.09375 0  0.3125 0.09375 0  0.34375 0.09375 0  0.375 0.09375 0  0.40625 0.09375 0  0.4375 0.09375 0  0.46875 0.09375 0  0.5 0.09375 0  0.53125 0.09375 0  0.5625 0.09375 0  0.59375 0.09375 0  0.625 0.09375 0  0.65625 0.09375 0  0.6875 0.09375 0  0.71875 0.09375 0  0.75 0.09375 0  0.78125 0.09375 0  0.8125 0.09375 0  0.84375 0.09375 0  0.875 0.09375 0  0.90625 0.09375 0  0.9375 0.09375 0  0.96875 0.09375 0  1 0.09375 0  0 0.125 0  0.03125 0.125 0  0.0625 0.125 0  0.09375 0.125 0  0.125 0.125 0  0.15625 0.125 0  0.1875 0.125 0  0.21875 0.125 0  0.25 0.125 0  0.28125 0.125 0  0.3125 0.125 0  0.34375 0.125 0  0.375 0.125 0  0.40625 0.125 0  0.4375 0.125 0  0.46875 0.125 0  0.5 0.125 0  0.53125 0.125 0  0.5625 0.125 0  0.59375 0.125 0  0.625 0.125 0  0.65625 0.125 0  0.6875 0.125 0  0.71875 0.125 0  0.75 0.125 0  0.78125 0.125 0  0.8125 0.125 0  0.84375 0.125 0  0.875 0.125 0  0.90625 0.125 0  0.9375 0.125 0  0.96875 0.125 0  1 0.125 0  0 0.15625 0  0.03125 0.15625 0  0.0625 0.15625 0  0.09375 0.15625 0  0.125 0.15625 0  0.15625 0.15625 0  0.1875 0.15625 0  0.21875 0.15625 0  0.25 0.15625 0  0.28125 0.15625 0  0.3125 0.15625 0  0.34375 0.15625 0  0.375 0.15625 0  0.40625 0.15625 0  0.4375 0.15625 0  0.46875 0.15625 0  0.5 0.15625 0  0.53125 0.15625 0  0.5625 0.15625 0  0.59375 0.15625 0  0.625 0.15625 0  0.65625 0.15625 0  0.6875 0.15625 0  0.71875 0.15625 0  0.75 0.15625 0  0.78125 0.15625 0  0.8125 0.15625 0  0.84375 0.15625 0  0.875 0.15625 0  0.90625 0.15625 0  0.9375 0.15625 0  0.96875 0.15625 0  1 0.15625 0  0 0.1875 0  0.03125 0.1875 0  0.0625 0.1875 0  0.09375 0.1875 0  0.125 0.1875 0  0.15625 0.1875 0  0.1875 0.1875 0  0.21875 0.1875 0  0.25 0.1875 0  0.28125 0.1875 0  0.3125 0.1875 0  0.34375 0.1875 0  0.375 0.1875 0  0.40625 0.1875 0  0.4375 0.1875 0  0.46875 0.1875 0  0.5 0.1875 0  0.53125 0.1875 0  0.5625 0.1875 0  0.59375 0.1875 0  0.625 0.1875 0  0.65625 0.1875 0  0.6875 0.1875 0  0.71875 0.1875 0  0.75 0.1875 0  0.78125 0.1875 0  0.8125 0.1875 0  0.84375 0.1875 0  0.875 0.1875 0  0.90625 0.1875 0  0.9375 0.1875 0  0.96875 0.1875 0  1 0.1875 0  0 0.21875 0  0.03125 0.21875 0  0.0625 0.21875 0  0.09375 0.21875 0  0.125 0.21875 0  0.15625 0.21875 0  0.1875 0.21875 0  0.21875 0.21875 0  0.25 0.21875 0  0.28125 0.21875 0  0.3125 0.21875 0  0.34375 0.21875 0  0.375 0.21875 0  0.40625 0.21875 0  0.4375 0.21875 0  0.46875 0.21875 0  0.5 0.21875 0  0.53125 0.21875 0  0.5625 0.21875 0  0.59375 0.21875 0  0.625 0.21875 0  0.65625 0.21875 0  0.6875 0.21875 0  0.71875 0.21875 0  0.75 0.21875 0  0.78125 0.21875 0  0.8125 0.21875 0  0.84375 0.21875 0  0.875 0.21875 0  0.90625 0.21875 0  0.9375 0.21875 0  0.96875 0.21875 0  1 0.21875 0  0 0.25 0  0.03125 0.25 0  0.0625 0.25 0  0.09375 0.25 0  0.125 0.25 0  0.15625 0.25 0  0.1875 0.25 0  0.21875 0.25 0  0.25 0.25 0  0.28125 0.25 0  0.3125 0.25 0  0.34375 0.25 0  0.375 0.25 0  0.40625 0.25 0  0.4375 0.25 0  0.46875 0.25 0  0.5 0.25 0  0.53125 0.25 0  0.5625 0.25 0  0.59375 0.25 0  0.625 0.25 0  0.65625 0.25 0  0.6875 0.25 0  0.71875 0.25 0  0.75 0.25 0  0.78125 0.25 0  0.8125 0.25 0  0.84375 0.25 0  0.875 0.25 0  0.90625 0.25 0  0.9375 0.25 0  0.96875 0.25 0  1 0.25 0  0 0.28125 0  0.03125 0.28125 0  0.0625 0.28125 0  0.09375 0.28125 0  0.125 0.28125 0  0.15625 0.28125 0  0.1875 0.28125 0  0.21875 0.28125 0  0.25 0.28125 0  0.28125 0.28125 0  0.3125 0.28125 0  0.34375 0.28125 0  0.375 0.28125 0  0.40625 0.28125 0  0.4375 0.28125 0  0.46875 0.28125 0  0.5 0.28125 0  0.53125 0.28125 0  0.5625 0.28125 0  0.59375 0.28125 0  0.625 0.28125 0  0.65625 0.28125 0  0.6875 0.28125 0  0.71875 0.28125 0  0.75 0.28125 0  0.78125 0.28125 0  0.8125 0.28125 0  0.84375 0.28125 0  0.875 0.28125 0  0.90625 0.28125 0  0.9375 0.28125 0  0.96875 0.28125 0  1 0.28125 0  0 0.3125 0  0.03125 0.3125 0  0.0625 0.3125 0  0.09375 0.3125 0  0.125 0.3125 0  0.15625 0.3125 0  0.1875 0.3125 0  0.21875 0.3125 0  0.25 0.3125 0  0.28125 0.3125 0  0.3125 0.3125 0  0.34375 0.3125 0  0.375 0.3125 0  0.40625 0.3125 0  0.4375 0.3125 0  0.46875 0.3125 0  0.5 0.3125 0  0.53125 0.3125 0  0.5625 0.3125 0  0.59375 0.3125 0  0.625 0.3125 0  0.65625 0.3125 0  0.6875 0.3125 0  0.71875 0.3125 0  0.75 0.3125 0  0.78125 0.3125 0  0.8125 0.3125 0  0.84375 0.3125 0  0.875 0.3125 0  0.90625 0.3125 0  0.9375 0.3125 0  0.96875 0.3125 0  1 0.3125 0  0 0.34375 0  0.03125 0.34375 0  0.0625 0.34375 0  0.09375 0.34375 0  0.125 0.34375 0  0.15625 0.34375 0  0.1875 0.34375 0  0.21875 0.34375 0  0.25 0.34375 0  0.28125 0.34375 0  0.3125 0.34375 0  0.34375 0.34375 0  0.375 0.34375 0  0.40625 0.34375 0  0.4375 0.34375 0  0.46875 0.34375 0  0.5 0.34375 0  0.53125 0.34375 0  0.5625 0.34375 0  0.59375 0.34375 0  0.625 0.34375 0  0.65625 0.34375 0  0.6875 0.34375 0  0.71875 0.34375 0  0.75 0.34375 0  0.78125 0.34375 0  0.8125 0.34375 0  0.84375 0.34375 0  0.875 0.34375 0  0.90625 0.34375 0  0.9375 0.34375 0  0.96875 0.34375 0  1 0.34375 0  0 0.375 0  0.03125 0.375 0  0.0625 0.375 0  0.09375 0.375 0  0.125 0.375 0  0.15625 0.375 0  0.1875 0.375 0  0.21875 0.375 0  0.25 0.375 0  0.28125 0.375 0  0.3125 0.375 0  0.34375 0.375 0  0.375 0.375 0  0.40625 0.375 0  0.4375 0.375 0  0.46875 0.375 0  0.5 0.375 0  0.53125 0.375 0  0.5625 0.375 0  0.59375 0.375 0  0.625 0.375 0  0.65625 0.375 0  0.6875 0.375 0  0.71875 0.375 0  0.75 0.375 0  0.78125 0.375 0  0.8125 0.375 0  0.84375 0.375 0  0.875 0.375 0  0.90625 0.375 0  0.9375 0.375 0  0.96875 0.375 0  1 0.375 0  0 0.40625 0  0.03125 0.40625 0  0.0625 0.40625 0  0.09375 0.40625 0  0.125 0.40625 0  0.15625 0.40625 0  0.1875 0.40625 0  0.21875 0.40625 0  0.25 0.40625 0  0.28125 0.40625 0  0.3125 0.40625 0  0.34375 0.40625 0  0.375 0.40625 0  0.40625 0.40625 0  0.4375 0.40625 0  0.46875 0.40625 0  0.5 0.40625 0  0.53125 0.40625 0  0.5625 0.40625 0  0.59375 0.40625 0  0.625 0.40625 0  0.65625 0.40625 0  0.6875 0.40625 0  0.71875 0.40625 0  0.75 0.40625 0  0.78125 0.40625 0  0.8125 0.40625 0  0.84375 0.40625 0  0.875 0.40625 0  0.90625 0.40625 0  0.9375 0.40625 0  0.96875 0.40625 0  1 0.40625 0  0 0.4375 0  0.03125 0.4375 0  0.0625 0.4375 0  0.09375 0.4375 0  0.125 0.4375 0  0.15625 0.4375 0  0.1875 0.4375 0  0.21875 0.4375 0  0.25 0.4375 0  0.28125 0.4375 0  0.3125 0.4375 0  0.34375 0.4375 0  0.375 0.4375 0  0.40625 0.4375 0  0.4375 0.4375 0  0.46875 0.4375 0  0.5 0.4375 0  0.53125 0.4375 0  0.5625 0.4375 0  0.59375 0.4375 0  0.625 0.4375 0  0.65625 0.4375 0  0.6875 0.4375 0  0.71875 0.4375 0  0.75 0.4375 0  0.78125 0.4375 0  0.8125 0.4375 0  0.84375 0.4375 0  0.875 0.4375 0  0.90625 0.4375 0  0.9375 0.4375 0  0.96875 0.4375 0  1 0.4375 0  0 0.46875 0  0.03125 0.46875 0  0.0625 0.46875 0  0.09375 0.46875 0  0.125 0.46875 0  0.15625 0.46875 0  0.1875 0.46875 0  0.21875 0.46875 0  0.25 0.46875 0  0.28125 0.46875 0  0.3125 0.46875 0  0.34375 0.46875 0  0.375 0.46875 0  0.40625 0.46875 0  0.4375 0.46875 0  0.46875 0.46875 0  0.5 0.46875 0  0.53125 0.46875 0  0.5625 0.46875 0  0.59375 0.46875 0  0.625 0.46875 0  0.65625 0.46875 0  0.6875 0.46875 0  0.71875 0.46875 0  0.75 0.46875 0  0.78125 0.46875 0  0.8125 0.46875 0  0.84375 0.46875 0  0.875 0.46875 0  0.90625 0.46875 0  0.9375 0.46875 0  0.96875 0.46875 0  1 0.46875 0  0 0.5 0  0.03125 0.5 0  0.0625 0.5 0  0.09375 0.5 0  0.125 0.5 0  0.15625 0.5 0  0.1875 0.5 0  0.21875 0.5 0  0.25 0.5 0  0.28125 0.5 0  0.3125 0.5 0  0.34375 0.5 0  0.375 0.5 0  0.40625 0.5 0  0.4375 0.5 0  0.46875 0.5 0  0.5 0.5 0  0.53125 0.5 0  0.5625 0.5 0  0.59375 0.5 0  0.625 0.5 0  0.65625 0.5 0  0.6875 0.5 0  0.71875 0.5 0  0.75 0.5 0  0.78125 0.5 0  0.8125 0.5 0  0.84375 0.5 0  0.875 0.5 0  0.90625 0.5 0  0.9375 0.5 0  0.96875 0.5 0  1 0.5 0  0 0.53125 0  0.03125 0.53125 0  0.0625 0.53125 0  0.09375 0.53125 0  0.125 0.53125 0  0.15625 0.53125 0  0.1875 0.53125 0  0.21875 0.53125 0  0.25 0.53125 0  0.28125 0.53125 0  0.3125 0.53125 0  0.34375 0.53125 0  0.375 0.53125 0  0.40625 0.53125 0  0.4375 0.53125 0  0.46875 0.53125 0  0.5 0.53125 0  0.53125 0.53125 0  0.5625 0.53125 0  0.59375 0.53125 0  0.625 0.53125 0  0.65625 0.53125 0  0.6875 0.53125 0  0.71875 0.53125 0  0.75 0.53125 0  0.78125 0.531
[...]
<PointData  Scalars="theta"> 
<DataArray  type="Float64"  Name="theta"  format="ascii">6.3990915147249024e-03  1.6366635806916770e-03  5.0980255035240670e-03  5.5242870857831548e-04  9.7865383248576225e-05  1.1850275970557671e-02  1.0222148162280890e-02  7.8177282344062318e-03  4.7977687015656658e-03  2.0027314701970564e-03  2.8312527110454860e-04  3.1921596118241201e-04  2.2977978149947053e-03  5.6725891870284409e-03  9.6594905872460432e-03  1.3524688256948704e-02  1.7728595779927057e-02  1.3599723215560312e-03  7.0309884418571014e-03  6.9381522567291852e-03  1.2051092935636354e-03  9.6124748606230188e-04  0.0000000000000000e+00  1.0606622817720920e-03  2.3985024785937441e-04  7.7622434296269359e-03  4.4771003744883192e-03  6.8439474924585596e-04  1.6036869387330920e-02  1.1425128150140764e-02  8.7377472428588829e-03  6.4927762196252082e-03  4.6208715808337165e-03  7.1625653614263733e-03  5.9998960829396293e-03  8.3079948667665981e-04  4.7615422803085070e-03  5.0145114269515233e-04  0.0000000000000000e+00  1.1051659721031452e-02  9.5886301542888828e-03  7.2002334454879984e-03  4.1377937243520374e-03  1.5424947011071024e-03  1.9279346116846591e-04  2.1736932834176504e-04  1.7697534625029231e-03  4.8922750134356915e-03  8.8965214838972895e-03  1.2686495205230772e-02  1.6533826585833310e-02  0.0000000000000000e+00  6.3821758965407378e-03  6.4802157805599805e-03  6.1173486982512171e-04  9.0128184807007118e-04  2.0618492529989822e-03  9.9449483650645488e-04  1.2175224349809548e-04  7.2499147473205818e-03  4.0639580526611813e-03  0.0000000000000000e+00  1.4956109368233295e-02  1.0717055413195070e-02  8.0475833963332272e-03  5.5996381581338364e-03  3.7059023394079259e-04  6.7153072489119772e-03  5.6107704288326354e-03  0.0000000000000000e+00  4.4547016663585457e-03  4.4569851661678029e-04  9.0293000233819948e-03  1.0310145291369555e-02  8.9904612820571519e-03  6.5358031413748586e-03  3.4145444559550847e-03  1.0503579955977969e-03  9.7865383248576225e-05  1.1034052968250730e-04  1.2051092935636354e-03  4.0371491758570801e-03  8.0755594248408391e-03  1.1895071779008431e-02  1.5424484523157254e-02  1.8201457205032186e-02  5.6725891870284409e-03  6.0626213811868380e-03  0.0000000000000000e+00  8.4282885424868535e-04  1.9401001821527022e-03  9.2999647713287042e-04  0.0000000000000000e+00  6.7827198425619928e-03  3.6121167576340595e-03  2.0833165351299813e-02  1.3952624716326962e-02  1.0048491828302971e-02  7.3049604905783801e-03  3.3571492897652155e-03  3.1961231140758390e-04  6.2784818484115327e-03  5.2172581071799912e-03  1.2439361978125559e-02  4.1745260031462780e-03  3.8438879398419132e-04  8.4961335532144529e-03  9.6296483191471438e-03  8.4073813288806868e-03  5.8091357601730877e-03  2.6298666637954815e-03  5.3318036392096331e-04  0.0000000000000000e+00  0.0000000000000000e+00  6.1173486982512171e-04  3.1093939971521618e-03  7.1776979850065393e-03  1.1123612153262965e-02  1.4406427578325815e-02  1.7126688766196135e-02  4.8922750134356915e-03  5.6813166174791924e-03  1.8685942218793579e-03  7.8371691170922857e-04  1.8189528694549997e-03  8.6477101879568481e-04  1.1590084600872812e-02  6.3561249384353957e-03  3.1152385579754226e-03  1.9602998538367972e-02  1.3031714427898347e-02  9.3967928819503142e-03  7.7243133598980350e-03  3.1490898391664007e-03  2.6374694309892256e-04  5.8595691345176429e-03  4.8051652846837455e-03  1.1704836522127988e-02  3.9158096006994192e-03  3.1720107691823526e-04  7.9656023168580715e-03  9.0090999698047795e-03  7.8177282344062318e-03  5.0100384131709303e-03  1.7908012751622986e-03  0.0000000000000000e+00  1.8685942218793568e-03  1.0359604456915712e-02  0.0000000000000000e+00  2.1173342404537674e-03  6.1903429542075079e-03  1.0343455756005983e-02  1.3478056722260932e-02  1.6057232488359816e-02  4.0371491758570801e-03  5.3292168113388150e-03  1.7582565674792421e-03  7.2181387613967651e-04  1.7006314306526500e-03  7.9646580509386766e-04  1.0905707685764396e-02  5.9622038618064848e-03  2.5707227705697735e-03  1.8378911959959852e-02  1.2191932058976944e-02  3.6148051975129096e-04  7.2089319108968909e-03  2.9526397219608669e-03  2.0313670016043395e-04  5.4646798393084397e-03  4.3617494627402210e-03  1.0973941538834738e-02  3.6715290960773004e-03  2.4430683175098960e-04  7.4474462156830200e-03  8.4424782860122016e-03  7.2002334454879984e-03  4.1343285884783195e-03  9.0904251655430724e-04  1.6573301776463148e-03  1.7582565674792408e-03  9.7478855278378806e-03  1.8201457205032186e-02  1.0747964461630490e-03  5.1083264712669715e-03  9.5264626555512568e-03  1.2630362810569902e-02  1.5012722274207968e-02  3.1093939971521618e-03  4.9967635246207882e-03  1.6484642690491442e-03  6.5520561727313870e-04  1.5871619415072458e-03  7.2296874126938110e-04  1.0224713378691519e-02  5.5902628543167705e-03  1.9799590262737929e-03  1.7183378341007031e-02  3.1961231140758401e-04  0.0000000000000000e+00  6.7231060803361348e-03  2.7611450948426932e-03  1.3832543934168699e-04  5.0980255035240687e-03  3.8767989538298613e-03  1.0260095361722494e-02  3.4334106118011592e-03  1.6636013979473639e-04  6.9505378895755102e-03  7.9192553839997123e-03  6.5358031413748586e-03  3.1842411402942298e-03  0.0000000000000000e+00  1.5594673445995003e-03  1.6484642690491431e-03  9.1391900867230577e-03  1.7126688766196135e-02  0.0000000000000000e+00  3.9344098950415685e-03  8.6473702584405985e-03  1.1847595611255193e-02  1.4011043782071395e-02  2.1173342404537674e-03  4.6726964327815246e-03  1.5412329782314774e-03  5.8235817377556625e-04  1.4801995956288468e-03  6.4258721958871919e-04  9.5596038980534110e-03  5.2277041266745646e-03  1.3482482582987533e-03  3.6182794279243278e-04  2.6374694309892261e-04  9.3649743524520015e-03  6.2720172577921474e-03  2.5674917221957176e-03  7.0216448484073860e-05  4.7615422803085087e-03  3.3435114069790238e-03  9.5755215273843879e-03  3.1926077847787382e-03  8.4447360090040047e-05  6.4821258023503850e-03  7.4252273543709600e-03  5.8091357601730877e-03  2.1683012195886052e-03  9.0293000233819913e-03  1.4620882093486479e-03  1.5412329782314763e-03  8.5446930336612898e-03  1.6057232488359816e-02  2.3030852120137370e-02  2.6791267991066246e-03  7.6859334213663913e-03  1.1108505377154104e-02  1.3066808621220626e-02  1.0747964461630490e-03  4.3449760876052455e-03  1.4383988687696398e-03  5.0224972204001748e-04  1.3808851590062850e-03  5.5419373670417761e-04  8.9217682381960289e-03  4.8610582241387116e-03  2.0624266759507689e-03  3.2843882396922864e-04  2.0313670016043400e-04  8.8119868223249225e-03  5.8580474607586369e-03  2.3646946037094198e-03  0.0000000000000000e+00  4.4547016663585466e-03  2.7590955708916109e-03  8.9302059998425075e-03  2.9404349525889032e-03  0.0000000000000000e+00  6.0472056239649144e-03  6.9436612720218931e-03  5.0100384131709303e-03  1.1006681895086110e-03  8.4961335532144511e-03  1.3669805331184681e-03  1.4383988687696389e-03  7.9745742319278917e-03  1.5012722274207968e-02  2.1670915237095911e-02  1.3599723215560310e-03  6.6286661685752294e-03  1.0388058829200176e-02  1.2190087170611100e-02  0.0000000000000000e+00  4.0017817462795202e-03  1.3414619946619302e-03  4.1446097078347695e-04  1.2897430709818576e-03  4.5732563710256273e-04  8.3205105875528984e-03  2.9911393343214957e-03  1.9177780363769355e-03  2.9192215188835813e-04  1.3832543934168701e-04  8.2617324937738577e-03  5.4805464802799480e-03  2.1464829628546470e-03  1.4300987096152263e-03  4.1745260031462788e-03  2.1250429032952838e-03  8.3310311450345044e-03  2.6690945711186553e-03  1.6573301776463148e-03  5.6480739918472632e-03  6.4566664283402580e-03  4.1343285884783195e-03  0.0000000000000000e+00  7.9656023168580697e-03  1.2757728910809817e-03  1.3414619946619296e-03  7.4371500756893628e-03  1.4011043782071395e-02  2.0317699991396175e-02  0.0000000000000000e+00  5.4700347151379466e-03  9.6594905872460467e-03  1.1385509041370577e-02  1.0359604456915712e-02  3.6325013496361167e-03  1.2514561990625687e-03  3.1921596118241217e-04  1.2066301776291306e-03  3.5223013290030516e-04  2.2054628488804178e-03  2.7971477994843210e-03  1.7662995111254699e-03  2.5176571094159031e-04  7.0216448484073873e-05  7.7243133598980367e-03  5.1358509518511525e-03  1.9078314735621325e-03  1.3456535500765898e-03  3.9158096006994200e-03  1.4470427696526499e-03  7.7811609628526688e-03  2.3723377808327934e-03  1.5594673445995003e-03  5.2841040028669406e-03  5.9466771125519964e-03  3.1842411402942298e-03  1.5394448429454463e-02  7.4474462156830182e-03  1.1897957405020685e-03  1.2514561990625683e-03  6.9381522567291852e-03  1.3066808621220626e-02  1.8996049751576177e-02  2.4661611062832916e-02  4.2129959450539732e-03  8.8965214838972913e-03  1.0651810508684098e-02  9.7478855278378806e-03  3.2286305190962743e-03  1.1688567661482805e-03  2.1736932834176510e-04  1.1307399305173574e-03  4.2248984196570539e-04  2.0624266759507706e-03  2.6009693711308243e-03  1.6033071678609044e-03  2.0775932048904103e-04  0.0000000000000000e+00  7.2089319108968918e-03  4.8175564003823720e-03  1.6453925959062090e-03  1.2616257700095751e-03  3.6715290960773013e-03  7.3454459695286068e-04  7.2797317900069134e-03  2.0460020047172794e-03  1.4620882093486479e-03  4.9517636006653166e-03  5.3979237266695498e-03  2.1683012195886052e-03  1.4485429600967891e-02  6.9505378895755084e-03  1.1099660377965452e-03  1.1688567661482800e-03  6.4802157805599805e-03  1.2190087170611100e-02  1.7728595779927053e-02  2.3205380337863558e-02  2.8688292887699713e-03  8.0755594248408408e-03  9.9818715773703146e-03  9.1391900867230577e-03  2.7845042000062283e-03  1.0935339596643973e-03  1.1034052968250736e-04  2.6086399338117247e-04  3.9285844629636342e-04  1.9177780363769372e-03  2.3955279711930836e-03  1.4250473586637706e-03  1.6001528698624085e-04  6.1215984051623809e-03  6.7231060803361357e-03  4.5170220975090337e-03  1.3577927128546963e-03  1.1795580161692118e-03  3.4334106118011601e-03  0.0000000000000000e+00  6.8218776316295972e-03  1.6883791864647343e-03  1.3669805331184681e-03  4.6448778695509620e-03  4.7977687015656675e-03  1.1006681895086110e-03  1.3580903697835486e-02  6.4821258023503832e-03  1.0367053313133372e-03  1.0935339596643968e-03  6.0626213811868380e-03  1.1385509041370577e-02  1.6533826585833307e-02  2.1756347193121032e-02  1.4562686727994472e-03  7.1776979850065410e-03  9.3632447195576146e-03  8.5446930336612898e-03  2.2977978149947053e-03  1.0247568281433637e-03  8.0098351517879373e-04  2.3679172631279921e-04  3.6182794279243299e-04  1.7662995111254712e-03  2.1744710581830251e-03  1.2290196515015745e-03  1.0896201846479089e-04  5.7601273049650492e-03  6.2720172577921483e-03  4.2240688273170977e-03  1.0457657933412967e-03  1.1008555747703003e-03  3.1926077847787390e-03  1.4069418778496715e-02  6.3990915147248998e-03  1.3003819969559494e-03  1.2757728910809817e-03  4.3551157959099557e-03  4.1377937243520391e-03  0.0000000000000000e+00  1.2697476703794947e-02  6.0472056239649118e-03  9.6989855283298888e-04  1.0247568281433633e-03  5.6813166174791924e-03  1.0651810508684098e-02  1.5424484523157251e-02  2.0341114095990348e-02  0.0000000000000000e+00  6.1903429542075087e-03  8.7791360988051168e-03  7.9745742319278917e-03  1.7697534625029231e-03  1.7597012293566375e-04  6.6097877353551624e-04  2.1046461395522411e-04  3.2843882396922880e-04  1.6033071678609055e-03  1.9327077805613385e-03  1.0141980284316164e-03  5.5311054804276642e-05  5.4004428153636500e-03  5.8580474607586377e-03  3.9278130542210760e-03  7.1211166026717879e-04  1.0266664881551544e-03  2.9404349525889040e-03  1.3238640941010446e-02  5.9998960829396267e-03  8.8549194162792361e-04  1.1897957405020685e-03  4.0726630235004609e-03  3.4145444559550860e-03  1.8639589868202890e-02  1.1850275970557668e-02  5.6480739918472606e-03  9.0889739256657439e-04  9.6124748606230155e-04  5.3292168113388150e-03  9.9818715773703146e-03  1.4406427578325812e-02  1.8983914773715898e-02  2.3030852120137377e-02  5.1083264712669732e-03  8.2097617246962712e-03  7.4371500756893628e-03  2.4579450310078417e-03  0.0000000000000000e+00  5.0908285553753600e-04  1.8151336860776785e-04  2.9192215188835830e-04  1.4250473586637715e-03  1.6668469496671097e-03  7.8113072471723425e-04  0.0000000000000000e+00  5.0491483014628614e-03  5.4805464802799488e-03  3.6175689500384570e-03  3.6148051975129080e-04  9.5778199165110346e-04  2.6690945711186566e-03  1.2411969314190833e-02  5.6107704288326328e-03  4.4949142831778228e-04  1.1099660377965452e-03  3.7870261217568288e-03  2.6298666637954824e-03  1.7538950360193935e-02  1.1051659721031448e-02  5.2841040028669389e-03  8.5256844326288641e-04  9.0128184807007096e-04  4.9967635246207882e-03  9.3632447195576146e-03  1.3478056722260929e-02  1.7704546862320591e-02  2.1670915237095918e-02  3.9344098950415693e-03  7.6339687141858750e-03  3.7034776868486357e-04  2.2939460821533504e-03  2.9800179126121215e-03  3.4665872586260593e-04  1.4978645813438693e-04  2.5176571094159041e-04  1.2290196515015754e-03  1.3754970378091391e-03  5.3190905727259282e-04  1.1891011425788954e-03  4.7122591507275336e-03  5.1358509518511534e-03  3.2837433239914955e-03  0.0000000000000000e+00  8.9456583640319350e-04  2.3723377808327947e-03  1.1604580572960996e-02  5.2172581071799886e-03  0.0000000000000000e+00  1.0367053313133372e-03  3.4879022809727062e-03  1.7908012751622990e-03  1.6443750883784285e-02  1.0310145291369551e-02  4.9517636006653149e-03  7.9938254538165299e-04  8.4282885424868514e-04  4.6726964327815246e-03  8.7791360988051168e-03  1.2630362810569899e-02  1.6516654970928669e-02  2.0317699991396185e-02  2.6791267991066255e-03  1.2702588451222083e-04  3.4739545211139993e-04  2.1393519932649328e-03  2.8040523751519607e-03  1.7597012293566369e-04  1.1536485115858260e-04  2.0775932048904111e-04  1.0141980284316171e-03  1.0594015841776088e-03  2.7000647961750266e-04  1.1188865238134075e-03  4.3946896072755834e-03  4.8175564003823728e-03  2.9186483065669435e-03  1.1891011425788952e-03  8.3691873084334697e-04  2.0460020047172807e-03  1.0830300028907291e-02  4.8051652846837429e-03  1.4300987096152256e-03  9.6989855283298888e-04  3.1660421647960787e-03  9.0904251655430745e-04  1.5374097955140938e-02  9.6296483191471403e-03  4.6448778695509603e-03  7.4753827148867134e-04  7.8371691170922835e-04  4.3449760876052455e-03  8.2097617246962712e-03  1.1847595611255190e-02  1.5426511875819466e-02  1.8996049751576184e-02  3.8351671830323794e-04  1.0955236495527840e-04  3.2572383244683698e-04  1.9958115284682268e-03  2.6289565666786367e-03  0.0000000000000000e+00  7.8557413350202048e-05  1.6001528698624090e-04  7.8113072471723468e-04  7.2139691870011860e-04  0.0000000000000000e+00  1.0490189485095052e-03  4.0998265876081722e-03  4.5170220975090346e-03  2.5171627474584934e-03  1.1188865238134073e-03  7.8428125295350185e-04  1.6883791864647350e-03  1.0100422209030442e-02  4.3617494627402184e-03  1.3456535500765891e-03  9.0889739256657439e-04  2.8140334645795069e-03  0.0000000000000000e+00  1.4348307763569702e-02  9.0090999698047743e-03  4.3551157959099539e-03  6.9510954989527771e-04  7.2181387613967629e-04  4.0017817462795202e-03  7.6339687141858750e-03  1.1108505377154101e-02  1.4432405324532866e-02  6.9966317233552129e-04  3.5956846025734384e-04  9.0403593149968373e-05  3.0459888334654977e-04  1.8640826668598371e-03  2.4579450310078404e-03  6.7531113884281816e-04  3.9877137522918391e-05  1.0896201846479094e-04  5.3190905727259314e-04  3.6619388175845809e-04  9.3668136006518435e-04  9.8078109946850051e-04  3.8292271439863941e-03  4.2240688273170986e-03  2.0771852529736737e-03  1.0490189485095050e-03  7.3567539348162010e-04  1.3003819969559501e-03  9.4227313460534760e-03  3.8767989538298592e-03  1.2616257700095747e-03  8.5256844326288641e-04  2.4269385904439138e-03  1.8639589868202890e-02  1.3381343638712219e-02  8.4424782860121981e-03  4.0726630235004592e-03  6.4020529741709814e-04  6.5520561727313849e-04  3.6325013496361167e-03  7.0309884418571014e-03  1.0388058829200172e-02  4.7413314420278430e-05  6.5601598561502647e-04  3.3617881763381522e-04  6.9628437696216868e-05  2.8323578976094350e-04  1.7439585061822815e-03  2.2939460821533491e-03  6.3543504044878262e-04  0.0000000000000000e+00  5.5311054804276669e-05  2.7000647961750282e-04  0.0000000000000000e+00  8.8137174657084512e-04  9.1534144669350181e-04  3.5824662546262947e-03  3.9278130542210769e-03  1.5998386671451513e-03  9.8078109946850029e-04  6.8978165127166495e-04  8.8549194162792393e-04  8.8008060511284777e-03  3.3435114069790221e-03  1.1795580161692116e-03  7.9938254538165299e-04  2.0027314701970573e-03  1.7538950360193935e-02  1.2483518366596122e-02  7.9192553839997088e-03  3.7870261217568279e-03  5.8112779615576856e-04  5.8235817377556604e-04  3.2286305190962743e-03  6.3821758965407378e-03  2.3852523193750930e-04  2.4067840053824142e-05  6.1346980715154531e-04  3.1374830270220784e-04  4.7413314420278430e-05  2.6086399338117247e-04  1.6342733313535682e-03  2.1393519932649315e-03  5.9575603404875797e-04  9.3668136006518467e-04  0.0000000000000000e+00  0.0000000000000000e+00  4.5725043112896813e-03  8.2633550691323012e-04  8.5365456657269503e-04  3.3571492897652168e-03  3.6175689500384579e-03  1.0894062290757616e-03  9.1534144669350170e-04  6.4504558709126971e-04  4.4949142831778239e-04  8.2336694863329573e-03  2.7590955708916096e-03  1.1008555747703001e-03  7.4753827148867134e-04  1.5424947011071029e-03  1.6443750883784285e-02  1.1659572999088787e-02  7.4252273543709557e-03  3.4879022809727049e-03  5.1651651508722077e-04  5.0224972204001726e-04  2.7845042000062283e-03  1.5847494046747349e-05  2.2352333729759721e-04  0.0000000000000000e+00  5.7044399970887093e-04  2.9260411218531287e-04  2.4067840053824142e-05  2.3679172631279921e-04  1.5329891815880692e-03  1.9958115284682259e-03  5.5700257742678891e-04  8.8137174657084544e-04  4.5725043112896839e-03  6.2014182232977512e-03  4.3025048675716677e-03  7.7258303880187260e-04  7.9637835693190920e-04  3.1490898391664016e-03  3.2837433239914964e-03  5.5300194039632723e-04  8.5365456657269492e-04  5.9980520704583438e-04  0.0000000000000000e+00  7.7158180157338753e-03  2.1250429032952829e-03  1.0266664881551542e-03  6.9510954989527771e-04  1.0503579955977974e-03  1.5374097955140938e-02  1.0908213391881225e-02  6.9436612720218905e-03  3.1660421647960774e-03  4.4546515840887383e-04  4.1446097078347673e-04  7.0080557956512135e-05  8.0444692937964364e-06  2.0967047025473654e-04  1.3600936075719426e-03  5.2538663948500843e-04  2.7297175135982337e-04  0.0000000000000000e+00  2.1046461395522411e-04  1.4373565004710670e-03  1.8640826668598362e-03  5.1983826494019913e-04  8.2633550691323056e-04  4.3025048675716703e-03  5.8352338839152730e-03  4.0338399257454490e-03  7.2103477199040385e-04  7.4381527025171802e-04  2.9526397219608678e-03  2.9186483065669440e-03  0.0000000000000000e+00  7.9637835693190909e-04  5.5242870857831570e-04  1.2439361978125563e-02  7.2376299106745676e-03  1.4470427696526491e-03  9.5778199165110314e-04  6.4020529741709814e-04  5.3318036392096342e-04  1.4348307763569702e-02  1.0222148162280890e-02  6.4566664283402554e-03  2.8140334645795056e-03  3.6760184008553153e-04  1.2818717662858032e-04  6.5708712589270917e-05  0.0000000000000000e+00  1.9659056762897154e-04  1.2797821431207968e-03  4.7690448855297775e-04  2.5495489077706306e-04  6.7531113884281816e-04  1.8151336860776785e-04  1.3441361712021789e-03  1.7439585061822806e-03  4.8480521705690825e-04  7.7258303880187282e-04  4.0338399257454517e-03  5.4708594508308317e-03  3.7714418438998371e-03  6.7244264748498011e-04  6.9588274739389177e-04  2.7611450948426936e-03  2.5171627474584938e-03  6.1215984051623783e-03  7.4381527025171792e-04  5.0145114269515255e-04  1.1704836522127992e-02  6.7861238194356233e-03  7.3454459695286036e-04  8.9456583640319318e-04  5.8112779615576856e-04  0.0000000000000000e+00  1.3381343638712219e-02  9.5886301542888828e-03  5.9466771125519929e-03  2.4269385904439130e-03  4.2457313377131648e-05  1.2018267659620212e-04  6.1447147819918926e-05  4.0758393119098900e-04  1.838406079359348