<?xml version="1.0"?>
<VTKFile type="UnstructuredGrid"  version="0.1"  >
<UnstructuredGrid>
<Piece  NumberOfPoints="1089" NumberOfCells="2048">
<Points>
<DataArray  type="Float64"  NumberOfComponents="3"  format="ascii">0 0 0  0.03125 0 0  0.0625 0 0  0.09375 0 0  0.125 0 0  0.15625 0 0  0.1875 0 0  0.21875 0 0  0.25 0 0  0.28125 0 0  0.3125 0 0  0.34375 0 0  0.375 0 0  0.40625 0 0  0.4375 0 0  0.46875 0 0  0.5 0 0  0.53125 0 0  0.5625 0 0  0.59375 0 0  0.625 0 0  0.65625 0 0  0.6875 0 0  0.71875 0 0  0.75 0 0  0.78125 0 0  0.8125 0 0  0.84375 0 0  0.875 0 0  0.90625 0 0  0.9375 0 0  0.96875 0 0  1 0 0  0 0.03125 0  0.03125 0.03125 0  0.0625 0.03125 0  0.09375 0.03125 0  0.125 0.03125 0  0.15625 0.03125 0  0.1875 0.03125 0  0.21875 0.03125 0  0.25 0.03125 0  0.28125 0.03125 0  0.3125 0.03125 0  0.34375 0.03125 0  0.375 0.03125 0  0.40625 0.03125 0  0.4375 0.03125 0  0.46875 0.03125 0  0.5 0.03125 0  0.53125 0.03125 0  0.5625 0.03125 0  0.59375 0.03125 0  0.625 0.03125 0  0.65625 0.03125 0  0.6875 0.03125 0  0.71875 0.03125 0  0.75 0.03125 0  0.78125 0.03125 0  0.8125 0.03125 0  0.84375 0.03125 0  0.875 0.03125 0  0.90625 0.03125 0  0.9375 0.03125 0  0.96875 0.03125 0  1 0.03125 0  0 0.0625 0  0.03125 0.0625 0  0.0625 0.0625 0  0.09375 0.0625 0  0.125 0.0625 0  0.15625 0.0625 0  0.1875 0.0625 0  0.21875 0.0625 0  0.25 0.0625 0  0.28125 0.0625 0  0.3125 0.0625 0  0.34375 0.0625 0  0.375 0.0625 0  0.40625 0.0625 0  0.4375 0.0625 0  0.46875 0.0625 0  0.5 0.0625 0  0.53125 0.0625 0  0.5625 0.0625 0  0.59375 0.0625 0  0.625 0.0625 0  0.65625 0.0625 0  0.6875 0.0625 0  0.71875 0.0625 0  0.75 0.0625 0  0.78125 0.0625 0  0.8125 0.0625 0  0.84375 0.0625 0  0.875 0.0625 0  0.90625 0.0625 0  0.9375 0.0625 0  0.96875 0.0625 0  1 0.0625 0  0 0.09375 0  0.03125 0.09375 0  0.0625 0.09375 0  0.09375 0.09375 0  0.125 0.09375 0  0.15625 0.09375 0  0.1875 0.09375 0  0.21875 0.09375 0  0.25 0.09375 0  0.28125 0.09375 0  0.3125 0.09375 0  0.34375 0.09375 0  0.375 0.09375 0  0.40625 0.09375 0  0.4375 0.09375 0  0.46875 0.09375 0  0.5 0.09375 0  0.53125 0.09375 0  0.5625 0.09375 0  0.59375 0.09375 0  0.625 0.09375 0  0.65625 0.09375 0  0.6875 0.09375 0  0.71875 0.09375 0  0.75 0.09375 0  0.78125 0.09375 0  0.8125 0.09375 0  0.84375 0.09375 0  0.875 0.09375 0  0.90625 0.09375 0  0.9375 0.09375 0  0.96875 0.09375 0  1 0.09375 0  0 0.125 0  0.03125 0.125 0  0.0625 0.125 0  0.09375 0.125 0  0.125 0.125 0  0.15625 0.125 0  0.1875 0.125 0  0.21875 0.125 0  0.25 0.125 0  0.28125 0.125 0  0.3125 0.125 0  0.34375 0.125 0  0.375 0.125 0  0.40625 0.125 0  0.4375 0.125 0  0.46875 0.125 0  0.5 0.125 0  0.53125 0.125 0  0.5625 0.125 0  0.59375 0.125 0  0.625 0.125 0  0.65625 0.125 0  0.6875 0.125 0  0.71875 0.125 0  0.75 0.125 0  0.78125 0.125 0  0.8125 0.125 0  0.84375 0.125 0  0.875 0.125 0  0.90625 0.125 0  0.9375 0.125 0  0.96875 0.125 0  1 0.125 0  0 0.15625 0  0.03125 0.15625 0  0.0625 0.15625 0  0.09375 0.15625 0  0.125 0.15625 0  0.15625 0.15625 0  0.1875 0.15625 0  0.21875 0.15625 0  0.25 0.15625 0  0.28125 0.15625 0  0.3125 0.15625 0  0.34375 0.15625 0  0.375 0.15625 0  0.40625 0.15625 0  0.4375 0.15625 0  0.46875 0.15625 0  0.5 0.15625 0  0.53125 0.15625 0  0.5625 0.15625 0  0.59375 0.15625 0  0.625 0.15625 0  0.65625 0.15625 0  0.6875 0.15625 0  0.71875 0.15625 0  0.75 0.15625 0  0.78125 0.15625 0  0.8125 0.15625 0  0.84375 0.15625 0  0.875 0.15625 0  0.90625 0.15625 0  0.9375 0.15625 0  0.96875 0.15625 0  1 0.15625 0  0 0.1875 0  0.03125 0.1875 0  0.0625 0.1875 0  0.09375 0.1875 0  0.125 0.1875 0  0.15625 0.1875 0  0.1875 0.1875 0  0.21875 0.1875 0  0.25 0.1875 0  0.28125 0.1875 0  0.3125 0.1875 0  0.34375 0.1875 0  0.375 0.1875 0  0.40625 0.1875 0  0.4375 0.1875 0  0.46875 0.1875 0  0.5 0.1875 0  0.53125 0.1875 0  0.5625 0.1875 0  0.59375 0.1875 0  0.625 0.1875 0  0.65625 0.1875 0  0.6875 0.1875 0  0.71875 0.1875 0  0.75 0.1875 0  0.78125 0.1875 0  0.8125 0.1875 0  0.84375 0.1875 0  0.875 0.1875 0  0.90625 0.1875 0  0.9375 0.1875 0  0.96875 0.1875 0  1 0.1875 0  0 0.21875 0  0.03125 0.21875 0  0.0625 0.21875 0  0.09375 0.21875 0  0.125 0.21875 0  0.15625 0.21875 0  0.1875 0.21875 0  0.21875 0.21875 0  0.25 0.21875 0  0.28125 0.21875 0  0.3125 0.21875 0  0.34375 0.21875 0  0.375 0.21875 0  0.40625 0.21875 0  0.4375 0.21875 0  0.46875 0.21875 0  0.5 0.21875 0  0.53125 0.21875 0  0.5625 0.21875 0  0.59375 0.21875 0  0.625 0.21875 0  0.65625 0.21875 0  0.6875 0.21875 0  0.71875 0.21875 0  0.75 0.21875 0  0.78125 0.21875 0  0.8125 0.21875 0  0.84375 0.21875 0  0.875 0.21875 0  0.90625 0.21875 0  0.9375 0.21875 0  0.96875 0.21875 0  1 0.21875 0  0 0.25 0  0.03125 0.25 0  0.0625 0.25 0  0.09375 0.25 0  0.125 0.25 0  0.15625 0.25 0  0.1875 0.25 0  0.21875 0.25 0  0.25 0.25 0  0.28125 0.25 0  0.3125 0.25 0  0.34375 0.25 0  0.375 0.25 0  0.40625 0.25 0  0.4375 0.25 0  0.46875 0.25 0  0.5 0.25 0  0.53125 0.25 0  0.5625 0.25 0  0.59375 0.25 0  0.625 0.25 0  0.65625 0.25 0  0.6875 0.25 0  0.71875 0.25 0  0.75 0.25 0  0.78125 0.25 0  0.8125 0.25 0  0.84375 0.25 0  0.875 0.25 0  0.90625 0.25 0  0.9375 0.25 0  0.96875 0.25 0  1 0.25 0  0 0.28125 0  0.03125 0.28125 0  0.0625 0.28125 0  0.09375 0.28125 0  0.125 0.28125 0  0.15625 0.28125 0  0.1875 0.28125 0  0.21875 0.28125 0  0.25 0.28125 0  0.28125 0.28125 0  0.3125 0.28125 0  0.34375 0.28125 0  0.375 0.28125 0  0.40625 0.28125 0  0.4375 0.28125 0  0.46875 0.28125 0  0.5 0.28125 0  0.53125 0.28125 0  0.5625 0.28125 0  0.59375 0.28125 0  0.625 0.28125 0  0.65625 0.28125 0  0.6875 0.28125 0  0.71875 0.28125 0  0.75 0.28125 0  0.78125 0.28125 0  0.8125 0.28125 0  0.84375 0.28125 0  0.875 0.28125 0  0.90625 0.28125 0  0.9375 0.28125 0  0.96875 0.28125 0  1 0.28125 0  0 0.3125 0  0.03125 0.3125 0  0.0625 0.3125 0  0.09375 0.3125 0  0.125 0.3125 0  0.15625 0.3125 0  0.1875 0.3125 0  0.21875 0.3125 0  0.25 0.3125 0  0.28125 0.3125 0  0.3125 0.3125 0  0.34375 0.3125 0  0.375 0.3125 0  0.40625 0.3125 0  0.4375 0.3125 0  0.46875 0.3125 0  0.5 0.3125 0  0.53125 0.3125 0  0.5625 0.3125 0  0.59375 0.3125 0  0.625 0.3125 0  0.65625 0.3125 0  0.6875 0.3125 0  0.71875 0.3125 0  0.75 0.3125 0  0.78125 0.3125 0  0.8125 0.3125 0  0.84375 0.3125 0  0.875 0.3125 0  0.90625 0.3125 0  0.9375 0.3125 0  0.96875 0.3125 0  1 0.3125 0  0 0.34375 0  0.03125 0.34375 0  0.0625 0.34375 0  0.09375 0.34375 0  0.125 0.34375 0  0.15625 0.34375 0  0.1875 0.34375 0  0.21875 0.34375 0  0.25 0.34375 0  0.28125 0.34375 0  0.3125 0.34375 0  0.34375 0.34375 0  0.375 0.34375 0  0.40625 0.34375 0  0.4375 0.34375 0  0.46875 0.34375 0  0.5 0.34375 0  0.53125 0.34375 0  0.5625 0.34375 0  0.59375 0.34375 0  0.625 0.34375 0  0.65625 0.34375 0  0.6875 0.34375 0  0.71875 0.34375 0  0.75 0.34375 0  0.78125 0.34375 0  0.8125 0.34375 0  0.84375 0.34375 0  0.875 0.34375 0  0.90625 0.34375 0  0.9375 0.34375 0  0.96875 0.34375 0  1 0.34375 0  0 0.375 0  0.03125 0.375 0  0.0625 0.375 0  0.09375 0.375 0  0.125 0.375 0  0.15625 0.375 0  0.1875 0.375 0  0.21875 0.375 0  0.25 0.375 0  0.28125 0.375 0  0.3125 0.375 0  0.34375 0.375 0  0.375 0.375 0  0.40625 0.375 0  0.4375 0.375 0  0.46875 0.375 0  0.5 0.375 0  0.53125 0.375 0  0.5625 0.375 0  0.59375 0.375 0  0.625 0.375 0  0.65625 0.375 0  0.6875 0.375 0  0.71875 0.375 0  0.75 0.375 0  0.78125 0.375 0  0.8125 0.375 0  0.84375 0.375 0  0.875 0.375 0  0.90625 0.375 0  0.9375 0.375 0  0.96875 0.375 0  1 0.375 0  0 0.40625 0  0.03125 0.40625 0  0.0625 0.40625 0  0.09375 0.40625 0  0.125 0.40625 0  0.15625 0.40625 0  0.1875 0.40625 0  0.21875 0.40625 0  0.25 0.40625 0  0.28125 0.40625 0  0.3125 0.40625 0  0.34375 0.40625 0  0.375 0.40625 0  0.40625 0.40625 0  0.4375 0.40625 0  0.46875 0.40625 0  0.5 0.40625 0  0.53125 0.40625 0  0.5625 0.40625 0  0.59375 0.40625 0  0.625 0.40625 0  0.65625 0.40625 0  0.6875 0.40625 0  0.71875 0.40625 0  0.75 0.40625 0  0.78125 0.40625 0  0.8125 0.40625 0  0.84375 0.40625 0  0.875 0.40625 0  0.90625 0.40625 0  0.9375 0.40625 0  0.96875 0.40625 0  1 0.40625 0  0 0.4375 0  0.03125 0.4375 0  0.0625 0.4375 0  0.09375 0.4375 0  0.125 0.4375 0  0.15625 0.4375 0  0.1875 0.4375 0  0.21875 0.4375 0  0.25 0.4375 0  0.28125 0.4375 0  0.3125 0.4375 0  0.34375 0.4375 0  0.375 0.4375 0  0.40625 0.4375 0  0.4375 0.4375 0  0.46875 0.4375 0  0.5 0.4375 0  0.53125 0.4375 0  0.5625 0.4375 0  0.59375 0.4375 0  0.625 0.4375 0  0.65625 0.4375 0  0.6875 0.4375 0  0.71875 0.4375 0  0.75 0.4375 0  0.78125 0.4375 0  0.8125 0.4375 0  0.84375 0.4375 0  0.875 0.4375 0  0.90625 0.4375 0  0.9375 0.4375 0  0.96875 0.4375 0  1 0.4375 0  0 0.46875 0  0.03125 0.46875 0  0.0625 0.46875 0  0.09375 0.46875 0  0.125 0.46875 0  0.15625 0.46875 0  0.1875 0.46875 0  0.21875 0.46875 0  0.25 0.46875 0  0.28125 0.46875 0  0.3125 0.46875 0  0.34375 0.46875 0  0.375 0.46875 0  0.40625 0.46875 0  0.4375 0.46875 0  0.46875 0.46875 0  0.5 0.46875 0  0.53125 0.46875 0  0.5625 0.46875 0  0.59375 0.46875 0  0.625 0.46875 0  0.65625 0.46875 0  0.6875 0.46875 0  0.71875 0.46875 0  0.75 0.46875 0  0.78125 0.46875 0  0.8125 0.46875 0  0.84375 0.46875 0  0.875 0.46875 0  0.90625 0.46875 0  0.9375 0.46875 0  0.96875 0.46875 0  1 0.46875 0  0 0.5 0  0.03125 0.5 0  0.0625 0.5 0  0.09375 0.5 0  0.125 0.5 0  0.15625 0.5 0  0.1875 0.5 0  0.21875 0.5 0  0.25 0.5 0  0.28125 0.5 0  0.3125 0.5 0  0.34375 0.5 0  0.375 0.5 0  0.40625 0.5 0  0.4375 0.5 0  0.46875 0.5 0  0.5 0.5 0  0.53125 0.5 0  0.5625 0.5 0  0.59375 0.5 0  0.625 0.5 0  0.65625 0.5 0  0.6875 0.5 0  0.71875 0.5 0  0.75 0.5 0  0.78125 0.5 0  0.8125 0.5 0  0.84375 0.5 0  0.875 0.5 0  0.90625 0.5 0  0.9375 0.5 0  0.96875 0.5 0  1 0.5 0  0 0.53125 0  0.03125 0.53125 0  0.0625 0.53125 0  0.09375 0.53125 0  0.125 0.53125 0  0.15625 0.53125 0  0.1875 0.53125 0  0.21875 0.53125 0  0.25 0.53125 0  0.28125 0.53125 0  0.3125 0.53125 0  0.34375 0.53125 0  0.375 0.53125 0  0.40625 0.53125 0  0.4375 0.53125 0  0.46875 0.53125 0  0.5 0.53125 0  0.53125 0.53125 0  0.5625 0.53125 0  0.59375 0.53125 0  0.625 0.53125 0  0.65625 0.53125 0  0.6875 0.53125 0  0.71875 0.53125 0  0.75 0.53125 0  0.78125 0.531
[...]
<PointData  Scalars="phi"> 
<DataArray  type="Float64"  Name="phi"  format="ascii">0.0000000000000000e+00  0.0000000000000000e+00  0.0000000000000000e+00  0.0000000000000000e+00  0.0000000000000000e+00  0.0000000000000000e+00  0.0000000000000000e+00  0.0000000000000000e+00  0.0000000000000000e+00  0.0000000000000000e+00  0.0000000000000000e+00  0.0000000000000000e+00  0.0000000000000000e+00  0.0000000000000000e+00  0.0000000000000000e+00  0.0000000000000000e+00  0.0000000000000000e+00  0.0000000000000000e+00  0.0000000000000000e+00  0.0000000000000000e+00  0.0000000000000000e+00  0.0000000000000000e+00  0.0000000000000000e+00  0.0000000000000000e+00  0.0000000000000000e+00  0.0000000000000000e+00  0.0000000000000000e+00  0.0000000000000000e+00  0.0000000000000000e+00  0.0000000000000000e+00  0.0000000000000000e+00  0.0000000000000000e+00  0.0000000000000000e+00  0.0000000000000000e+00  -4.7074215141391107e-17  8.8715925672691696e-07  3.4997499681072824e-06  8.5900583695480703e-06  1.6788120118626670e-05  2.8570091830044056e-05  4.4232720686071787e-05  6.3875027858361892e-05  8.7388003131727202e-05  1.1445278186597449e-04  1.4454743898211869e-04  1.7696219585699294e-04  2.1082250597371895e-04  2.4511917583325033e-04  2.7874440057183534e-04  3.1053235949553005e-04  3.3930283433043708e-04  3.6390618945302043e-04  3.8326799354158843e-04  3.9643156840191038e-04  4.0259682310506514e-04  4.0115386752856950e-04  3.9171009414817475e-04  3.7410966384431060e-04  3.4844462275940145e-04  3.1505720535557601e-04  2.7453323992090366e-04  2.2768697569767530e-04  1.7553814450421503e-04  1.1928283486410713e-04  6.0261435944002703e-05  0.0000000000000000e+00  0.0000000000000000e+00  -8.8715925691375316e-07  -1.8546169420391868e-16  4.3375051321741067e-06  1.3630997029078289e-05  2.9143019252572093e-05  5.1829755575002373e-05  8.2290017528265460e-05  1.2072863286130008e-04  1.6693580055625158e-04  2.2028334384772727e-04  2.7973812817771575e-04  3.4389223847566775e-04  4.1100885379857002e-04  4.7908214166434777e-04  5.4590894270558081e-04  6.0916954966847828e-04  6.6651452124687205e-04  7.1565422485082180e-04  7.5444768279914816e-04  7.8098730841811637e-04  7.9367626197295634e-04  7.9129542618662681e-04  7.7305738762926935e-04  7.3864529979071310e-04  6.8823507944336068e-04  6.2250003180989359e-04  5.4259769522404350e-04  4.5013943156304291e-04  3.4714406681520140e-04  2.3597772275800956e-04  1.1928283486410743e-04  0.0000000000000000e+00  0.0000000000000000e+00  -3.4997499683843104e-06  -4.3375051327242174e-06  -4.0799778458982248e-16  1.1772737202820533e-05  3.2879095784330996e-05  6.4761297911498122e-05  1.0832914780593744e-04  1.6390526229853754e-04  2.3119409057847747e-04  3.0927610136527645e-04  3.9662753318063228e-04  4.9116510536359654e-04  5.9031411188425651e-04  6.9109740409579589e-04  7.9024194742899714e-04  8.8429894226659813e-04  9.6977295765746042e-04  1.0432551591385056e-03  1.1015555330818167e-03  1.1418290268419777e-03  1.1616907362628488e-03  1.1593156721286871e-03  1.1335192101811907e-03  1.0838150542655735e-03  1.0104483924974097e-03  9.1440287130613751e-04  7.9738101788863361e-04  6.6175877063667722e-04  5.1051578285870539e-04  3.4714406681520270e-04  1.7553814450421609e-04  0.0000000000000000e+00  0.0000000000000000e+00  -8.5900583699117355e-06  -1.3630997029800553e-05  -1.1772737203892016e-05  -7.0354171125865447e-16  2.4225607740980698e-05  6.2840309802191687e-05  1.1707712408564292e-04  1.8739319597677403e-04  2.7342853117945718e-04  3.7399794077986058e-04  4.8711672072887567e-04  6.1005927456936337e-04  7.3944860306213622e-04  8.7137337703290863e-04  1.0015282268678693e-03  1.1253719654492522e-03  1.2382977464027310e-03  1.3358086740628996e-03  1.4136921445029372e-03  1.4681862177590296e-03  1.4961315995778118e-03  1.4951033363446828e-03  1.4635170795742928e-03  1.4007057279948993e-03  1.3069633696128388e-03  1.1835546802336848e-03  1.0326892396033786e-03  8.5746154537971644e-04  6.6175877063668102e-04  4.5013943156304713e-04  2.2768697569767793e-04  0.0000000000000000e+00  0.0000000000000000e+00  -1.6788120119072403e-05  -2.9143019253457453e-05  -3.2879095785644541e-05  -2.4225607742705749e-05  -1.0574906134955922e-15  4.2237023695983417e-05  1.0405634330841740e-04  1.8607025382335961e-04  2.8788101596825236e-04  4.0807036141711375e-04  5.4423060027793753e-04  6.9303636213126384e-04  8.5035441920393979e-04  1.0113875528036721e-03  1.1708470894889729e-03  1.3231476032489534e-03  1.4626163979838582e-03  1.5837097850361487e-03  1.6812278768013954e-03  1.7505196411810111e-03  1.7876703022581203e-03  1.7896638173204593e-03  1.7545140847063175e-03  1.6813597054896906e-03  1.5705184895651271e-03  1.4234994095766163e-03  1.2429713033681750e-03  1.0326892396033864e-03  7.9738101788864402e-04  5.4259769522405261e-04  2.7453323992090886e-04  0.0000000000000000e+00  0.0000000000000000e+00  -2.8570091830566357e-05  -5.1829755576039880e-05  -6.4761297913037527e-05  -6.2840309804213440e-05  -4.2237023698462215e-05  -1.4525992729628289e-15  6.5795465627217870e-05  1.5594020531214725e-04  2.7002971812043299e-04  4.0645102858978028e-04  5.6241863753264394e-04  7.3405843298516139e-04  9.1653656354977848e-04  1.1042285225382098e-03  1.2909221171770742e-03  1.4700466636267005e-03  1.6349197073296951e-03  1.7790018596424686e-03  1.8961499934060744e-03  1.9808590658202418e-03  2.0284832360362003e-03  2.0354277022193619e-03  1.9993037695169658e-03  1.9190410346023306e-03  1.7949521810354894e-03  1.6287476597027293e-03  1.4234994095766299e-03  1.1835546802337043e-03  9.1440287130615790e-04  6.2250003180990975e-04  3.1505720535558490e-04  0.0000000000000000e+00  0.0000000000000000e+00  -4.4232720686664296e-05  -8.2290017529442497e-05  -1.0832914780768392e-04  -1.1707712408793672e-04  -1.0405634331122981e-04  -6.5795465630514061e-05  -1.8698973186919514e-15  9.4324264974978279e-05  2.1680003285972575e-04  3.6566250750258184e-04  5.3779953454643819e-04  7.2884659716138979e-04  9.3333325549850078e-04  1.1448756153068986e-03  1.3564076119904997e-03  1.5604423716960407e-03  1.7493537198418976e-03  1.9156670959943340e-03  2.0523487337404094e-03  2.1530819909354876e-03  2.2125201687170680e-03  2.2265060198366649e-03  2.1922493852102529e-03  2.1084559645565652e-03  1.9754020621515255e-03  1.7949521810355100e-03  1.5705184895651602e-03  1.3069633696128754e-03  1.0104483924974436e-03  6.8823507944338605e-04  3.4844462275941505e-04  0.0000000000000000e+00  0.0000000000000000e+00  -6.3875027859017496e-05  -1.2072863286260253e-04  -1.6390526230047016e-04  -1.8739319597931234e-04  -1.8607025382647182e-04  -1.5594020531579480e-04  -9.4324264979116692e-05  -2.2897602413211463e-15  1.2671799954967668e-04  2.8395909011553501e-04  4.6834020265796677e-04  6.7507072117127455e-04  8.9811482616601655e-04  1.1304052819488043e-03  1.3641006389297607e-03  1.5908761202871077e-03  1.8022371319205573e-03  1.9898434272575564e-03  2.1458315093898566e-03  2.2631228798334693e-03  2.3357062452302995e-03  2.3588827515523313e-03  2.3294646932496225e-03  2.2459198895234235e-03  2.1084559645565947e-03  1.9190410346023794e-03  1.6813597054897490e-03  1.4007057279949576e-03  1.0838150542656242e-03  7.3864529979075061e-04  3.7410966384433038e-04  0.0000000000000000e+00  0.0000000000000000e+00  -8.7388003132438154e-05  -1.6693580055766402e-04  -2.3119409058057345e-04  -2.7342853118221013e-04  -2.8788101597162781e-04  -2.7002971812438892e-04  -2.1680003286421388e-04  -1.2671799955464306e-04  -2.6928609305660952e-15  1.6142501164749810e-04  3.5396188474581212e-04  5.7246273559782477e-04  8.1040337935320706e-04  1.0601161646667705e-03  1.3130704481096613e-03  1.5601900818634751e-03  1.7921958307065098e-03  1.9999596390869391e-03  2.1748571747860481e-03  2.3091051016620864e-03  2.3960700795855202e-03  2.4305375343038832e-03  2.4089297437973867e-03  2.3294646932496615e-03  2.1922493852103205e-03  1.9993037695170508e-03  1.7545140847064072e-03  1.4635170795743778e-03  1.1335192101812625e-03  7.7305738762932128e-04  3.9171009414820190e-04  0.0000000000000000e+00  0.0000000000000000e+00  -1.1445278186673265e-04  -2.2028334384923353e-04  -3.0927610136751154e-04  -3.7399794078279622e-04  -4.0807036142071325e-04  -4.0645102859399875e-04  -3.6566250750736767e-04  -2.8395909012083036e-04  -1.6142501165324047e-04  -3.0611494250145022e-15  1.9656909208528569e-04  4.2284896377783545e-04  6.7190844314970522e-04  9.3556792147479946e-04  1.2047002352256074e-03  1.4695715784957190e-03  1.7202094572650985e-03  1.9467836227697883e-03  2.1399853858332643e-03  2.2913907382887673e-03  2.3937932909958519e-03  2.4414941583857548e-03  2.4305375343039344e-03  2.3588827515524198e-03  2.2265060198367794e-03  2.0354277022194890e-03  1.7896638173205868e-03  1.4951033363447988e-03  1.1593156721287834e-03  7.9129542618669533e-04  4.0115386752860512e-04  0.0000000000000000e+00  0.0000000000000000e+00  -1.4454743898291539e-04  -2.7973812817929863e-04  -3.9662753318298115e-04  -4.8711672073196077e-04  -5.4423060028172042e-04  -5.6241863753707713e-04  -5.3779953455146737e-04  -4.6834020266353101e-04  -3.5396188475184570e-04  -1.9656909209171818e-04  -3.3788430971289310e-15  2.3010001913305003e-04  4.8647707386657412e-04  7.6053219380687622e-04  1.0426395693761716e-03  1.3225074954315065e-03  1.5895682524630847e-03  1.8333820156927394e-03  2.0440393104150852e-03  2.2125465536411383e-03  2.3311798370315713e-03  2.3937932909959131e-03  2.3960700795856308e-03  2.3357062452304452e-03  2.2125201687172354e-03  2.0284832360363747e-03  1.7876703022582892e-03  1.4961315995779627e-03  1.1616907362629720e-03  7.9367626197304319e-04  4.0259682310511013e-04  0.0000000000000000e+00  0.0000000000000000e+00  -1.7696219585781937e-04  -3.4389223847730978e-04  -4.9116510536603318e-04  -6.1005927457256372e-04  -6.9303636213518790e-04  -7.3405843298975971e-04  -7.2884659716660610e-04  -6.7507072117704576e-04  -5.7246273560408235e-04  -4.2284896378450628e-04  -2.3010001914005747e-04  -3.6329567353257865e-15  2.5996017174126492e-04  5.4085748821620103e-04  8.3266925235312231e-04  1.1246504782923693e-03  1.4057418854763043e-03  1.6649928744008724e-03  1.8919832683824910e-03  2.0772276240955453e-03  2.2125465536412098e-03  2.2913907382888987e-03  2.3091051016622651e-03  2.2631228798336788e-03  2.1530819909357140e-03  1.9808590658204695e-03  1.7505196411812260e-03  1.4681862177592189e-03  1.1418290268421301e-03  7.8098730841822295e-04  3.9643156840196529e-04  0.0000000000000000e+00  0.0000000000000000e+00  -2.1082250597456617e-04  -4.1100885380025346e-04  -5.9031411188675462e-04  -7.3944860306541702e-04  -8.5035441920796218e-04  -9.1653656355449226e-04  -9.3333325550384795e-04  -8.9811482617193196e-04  -8.1040337935962023e-04  -6.7190844315654155e-04  -4.8647707387375490e-04  -2.5996017174870992e-04  -3.8137933016837315e-15  2.8425305897147553e-04  5.8248374132287089e-04  8.8360204128533630e-04  1.1761653390831312e-03  1.4488163538946036e-03  1.6907201287165424e-03  1.8919832683825721e-03  2.0440393104152353e-03  2.1399853858334729e-03  2.1748571747862992e-03  2.1458315093901346e-03  2.0523487337406983e-03  1.8961499934063589e-03  1.6812278768016584e-03  1.4136921445031660e-03  1.1015555330819997e-03  7.5444768279927556e-04  3.8326799354165380e-04  0.0000000000000000e+00  0.0000000000000000e+00  -2.4511917583410939e-04  -4.7908214166605457e-04  -6.9109740409832869e-04  -8.7137337703623507e-04  -1.0113875528077508e-03  -1.1042285225429894e-03  -1.1448756153123198e-03  -1.1304052819548016e-03  -1.0601161646732720e-03  -9.3556792148172913e-04  -7.6053219381415447e-04  -5.4085748822374621e-04  -2.8425305897920470e-04  -3.9155553765514884e-15  3.0139943798364799e-04  6.0862090398134121e-04  9.0995010423689350e-04  1.1937315024582321e-03  1.4488163538946932e-03  1.6649928744010411e-03  1.8333820156929757e-03  1.9467836227700789e-03  1.9999596390872683e-03  1.9898434272579073e-03  1.9156670959946894e-03  1.7790018596428110e-03  1.5837097850364618e-03  1.3358086740631696e-03  1.0432551591387199e-03  7.1565422485097045e-04  3.6390618945309649e-04  0.0000000000000000e+00  0.0000000000000000e+00  -2.7874440057269750e-04  -5.4590894270729363e-04  -7.9024194743153905e-04  -1.0015282268712074e-03  -1.1708470894930662e-03  -1.2909221171818700e-03  -1.3564076119959396e-03  -1.3641006389357785e-03  -1.3130704481161847e-03  -1.2047002352325595e-03  -1.0426395693834726e-03  -8.3266925236069004e-04  -5.8248374133062207e-04  -3.0139943799150037e-04  -3.9361879805588024e-15  3.1026774477445899e-04  6.1753179705979332e-04  9.0995010423698761e-04  1.1761653390833134e-03  1.4057418854765632e-03  1.5895682524634087e-03  1.7202094572654721e-03  1.7921958307069172e-03  1.8022371319209802e-03  1.7493537198423183e-03  1.6349197073300952e-03  1.4626163979842210e-03  1.2382977464030416e-03  9.6977295765770589e-04  6.6651452124704184e-04  3.3930283433052349e-04  0.0000000000000000e+00  0.0000000000000000e+00  -3.1053235949638679e-04  -6.0916954967018058e-04  -8.8429894226912421e-04  -1.1253719654525695e-03  -1.3231476032530202e-03  -1.4700466636314658e-03  -1.5604423717014454e-03  -1.5908761202930858e-03  -1.5601900818699548e-03  -1.4695715785026245e-03  -1.3225074954387578e-03  -1.1246504782998841e-03  -8.8360204129303240e-04  -6.0862090398913641e-04  -3.1026774478227299e-04  -3.8774646243037479e-15  3.1026774477455564e-04  6.0862090398153051e-04  8.8360204128561147e-04  1.1246504782927188e-03  1.3225074954319172e-03  1.4695715784961753e-03  1.5601900818639598e-03  1.5908761202876017e-03  1.5604423716965247e-03  1.4700466636271563e-03  1.3231476032493641e-03  1.1253719654496014e-03  8.8429894226687287e-04  6.0916954966866747e-04  3.1053235949562649e-04  0.0000000000000000e+00  0.0000000000000000e+00  -3.3930283433128005e-04  -6.6651452124854714e-04  -9.6977295765994596e-04  -1.2382977464059954e-03  -1.4626163979878598e-03  -1.6349197073343836e-03  -1.7493537198472156e-03  -1.8022371319264389e-03  -1.7921958307128847e-03  -1.7202094572718908e-03  -1.5895682524702159e-03  -1.4057418854836940e-03  -1.1761653390906981e-03  -9.0995010424455686e-04  -6.1753179706747381e-04  -3.1026774478217666e-04  -3.7442690864109154e-15  3.0139943798393085e-04  5.8248374132323648e-04  8.3266925235355870e-04  1.0426395693766649e-03  1.2047002352261415e-03  1.3130704481102182e-03  1.3641006389303208e-03  1.3564076119910427e-03  1.2909221171775818e-03  1.1708470894894276e-03  1.0015282268682536e-03  7.9024194742929833e-04  5.4590894270578789e-04  2.7874440057194068e-04  0.0000000000000000e+00  0.0000000000000000e+00  -3.6390618945384193e-04  -7.1565422485245407e-04  -1.0432551591409271e-03  -1.3358086740660803e-03  -1.5837097850400484e-03  -1.7790018596470381e-03  -1.9156670959995163e-03  -1.9898434272632871e-03  -1.9999596390931499e-03  -1.9467836227764046e-03  -1.8333820156996850e-03  -1.6649928744080691e-03  -1.4488163539019717e-03  -1.1937315024656927e-03  -9.0995010424446373e-04  -6.0862090398894775e-04  -3.0139943799121778e-04  -3.5446298990437753e-15  2.8425305897192569e-04  5.4085748821671830e-04  7.6053219380744553e-04  9.3556792147540401e-04  1.0601161646673920e-03  1.1304052819494227e-03  1.1448756153074940e-03  1.1042285225387628e-03  1.0113875528041647e-03  8.7137337703332377e-04  6.9109740409612017e-04  4.7908214166457019e-04  2.4511917583336341e-04  0.0000000000000000e+00  0.0000000000000000e+00  -3.8326799354238087e-04  -7.5444768280072264e-04  -1.1015555330841531e-03  -1.4136921445060055e-03  -1.6812278768051575e-03  -1.8961499934104827e-03  -2.0523487337454089e-03  -2.1458315093953843e-03  -2.1748571747920390e-03  -2.1399853858396455e-03  -2.0440393104217830e-03  -1.8919832683894297e-03  -1.6907201287236456e-03  -1.4488163539018838e-03  -1.1761653390905181e-03  -8.8360204129275864e-04  -5.8248374133025680e-04  -2.8425305897875443e-04  -3.2883172460978386e-15  2.5996017174185278e-04  4.8647707386720925e-04  6.7190844315037049e-04  8.1040337935388317e-04  8.9811482616668377e-04  9.3333325549913894e-04  9.1653656355036818e-04  8.5035441920446270e-04  7.3944860306257598e-04  5.9031411188459912e-04  4.1100885379880469e-04  2.1082250597383813e-04  0.0000000000000000e+00  0.0000000000000000e+00  -3.9643156840266710e-04  -7.8098730841961984e-04  -1.1418290268442083e-03  -1.4681862177619597e-03  -1.7505196411846031e-03  -1.9808590658244502e-03  -2.1530819909402607e-03  -2.2631228798387464e-03  -2.3091051016678045e-03  -2.2913907382948579e-03  -2.2125465536475307e-03  -2.0772276241021663e-03  -1.8919832683893497e-03  -1.6649928744079015e-03  -1.4057418854834358e-03  -1.1246504782995346e-03  -8.3266925236025278e-04  -5.4085748822322839e-04  -2.5996017174812164e-04  -2.9873085041391318e-15  2.3010001913373776e-04  4.2284896377854788e-04  5.7246273559854294e-04  6.7507072117197853e-04  7.2884659716205950e-04  7.3405843298577755e-04  6.9303636213180865e-04  6.1005927456982037e-04  4.9116510536395194e-04  3.4389223847591083e-04  1.7696219585711632e-04  0.0000000000000000e+00  0.0000000000000000e+00  -4.0259682310577990e-04  -7.9367626197437654e-04  -1.1616907362649558e-03  -1.4961315995805785e-03  -1.7876703022615117e-03  -2.0284832360401737e-03  -2.2125201687215740e-03  -2.3357062452352812e-03  -2.3960700795909178e-03  -2.3937932910016013e-03  -2.3311798370376047e-03  -2.2125465536474592e-03  -2.0440393104216321e-03  -1.8333820156994488e-03  -1.5895682524698922e-03  -1.3225074954383465e-03  -1.0426395693829780e-03  -7.6053219381358450e-04  -4.8647707387311972e-04  -2.3010001913936984e-04  -2.6541262127860866e-15  1.9656909208603019e-04  3.5396188474655740e-04  4.6834020265869352e-04  5.3779953454712666e-04  5.6241863753327516e-04  5.4423060027849405e-04  4.8711672072934150e-04  3.9662753318099402e-04  2.7973812817796290e-04  1.4454743898224405e-04  0.0000000000000000e+00  0.0000000000000000e+00  -4.0115386752923629e-04  -7.9129542618795159e-04  -1.1593156721306530e-03  -1.4951033363472645e-03  -1.7896638173236241e-03  -2.0354277022230703e-03  -2.2265060198408690e-03  -2.3588827515569791e-03  -2.4305375343089191e-03  -2.4414941583911177e-03  -2.3937932910015405e-03  -2.2913907382947274e-03  -2.1399853858394373e-03  -1.9467836227761140e-03  -1.7202094572715168e-03  -1.4695715785021683e-03  -1.2047002352320250e-03  -9.3556792148112437e-04  -6.7190844315587672e-04  -4.2284896378379407e-04  -1.9656909209097396e-04  -2.3018660993856596e-15  1.6142501164825428e-04  2.8395909011626913e-04  3.6566250750327486e-04  4.0645102859041395e-04  4.0807036141767103e-04  3.7399794078032625e-04  3.0927610136563760e-04  2.2028334384797377e-04  1.1445278186609953e-04  0.0000000000000000e+00  0.0000000000000000e+00  -3.9171009414878857e-04  -7.7305738763048897e-04  -1.1335192101830005e-03  -1.4635170795766696e-03  -1.7545140847092316e-03  -1.9993037695203797e-03  -2.1922493852141222e-03  -2.3294646932538999e-03  -2.4089297438020206e-03  -2.4305375343088697e-03  -2.3960700795908080e-03  -2.3091051016676280e-03  -2.1748571747917879e-03  -1.9999596390928203e-03  -1.7921958307124772e-03  -1.5601900818694712e-03  -1.3130704481156279e-03  -1.0601161646726512e-03  -8.1040337935894499e-04  -5.7246273560336482e-04  -3.5396188475110075e-04  -1.6142501165248451e-04  -1.9432918775248859e-15  1.2671799955040174e-04  2.1680003286040825e-04  2.7002971812105554e-04  2.8788101596879901e-04  2.7342853117991319e-04  2.3119409057883065e-04  1.6693580055649249e-04  8.7388003131849364e-05  0.0000000000000000e+00  0.0000000000000000e+00  -3.7410966384486690e-04  -7.3864529979181866e-04  -1.0838150542672137e-03  -1.4007057279970536e-03  -1.6813597054923313e-03  -1.9190410346054238e-03  -2.1084559645600720e-03  -2.2459198895273006e-03  -2.3294646932538608e-03  -2.3588827515568915e-03  -2.3357062452351368e-03  -2.2631228798385378e-03  -2.1458315093951076e-03  -1.9898434272629367e-03  -1.8022371319260158e-03  -1.5908761202925923e-03  -1.3641006389352190e-03  -1.1304052819541837e-03  -8.9811482617126539e-04  -6.7507072117634233e-04  -4.6834020266280481e-04  -2.8395909012009663e-04  -1.2671799955391808e-04  -1.5905391201302303e-15  9.4324264