<?xml version="1.0"?>
<VTKFile type="UnstructuredGrid"  version="0.1"  >
<UnstructuredGrid>
<Piece  NumberOfPoints="1089" NumberOfCells="2048">
<Points>
<DataArray  type="Float64"  NumberOfComponents="3"  format="ascii">0 0 0  0.03125 0 0  0.0625 0 0  0.09375 0 0  0.125 0 0  0.15625 0 0  0.1875 0 0  0.21875 0 0  0.25 0 0  0.28125 0 0  0.3125 0 0  0.34375 0 0  0.375 0 0  0.40625 0 0  0.4375 0 0  0.46875 0 0  0.5 0 0  0.53125 0 0  0.5625 0 0  0.59375 0 0  0.625 0 0  0.65625 0 0  0.6875 0 0  0.71875 0 0  0.75 0 0  0.78125 0 0  0.8125 0 0  0.84375 0 0  0.875 0 0  0.90625 0 0  0.9375 0 0  0.96875 0 0  1 0 0  0 0.03125 0  0.03125 0.03125 0  0.0625 0.03125 0  0.09375 0.03125 0  0.125 0.03125 0  0.15625 0.03125 0  0.1875 0.03125 0  0.21875 0.03125 0  0.25 0.03125 0  0.28125 0.03125 0  0.3125 0.03125 0  0.34375 0.03125 0  0.375 0.03125 0  0.40625 0.03125 0  0.4375 0.03125 0  0.46875 0.03125 0  0.5 0.03125 0  0.53125 0.03125 0  0.5625 0.03125 0  0.59375 0.03125 0  0.625 0.03125 0  0.65625 0.03125 0  0.6875 0.03125 0  0.71875 0.03125 0  0.75 0.03125 0  0.78125 0.03125 0  0.8125 0.03125 0  0.84375 0.03125 0  0.875 0.03125 0  0.90625 0.03125 0  0.9375 0.03125 0  0.96875 0.03125 0  1 0.03125 0  0 0.0625 0  0.03125 0.0625 0  0.0625 0.0625 0  0.09375 0.0625 0  0.125 0.0625 0  0.15625 0.0625 0  0.1875 0.0625 0  0.21875 0.0625 0  0.25 0.0625 0  0.28125 0.0625 0  0.3125 0.0625 0  0.34375 0.0625 0  0.375 0.0625 0  0.40625 0.0625 0  0.4375 0.0625 0  0.46875 0.0625 0  0.5 0.0625 0  0.53125 0.0625 0  0.5625 0.0625 0  0.59375 0.0625 0  0.625 0.0625 0  0.65625 0.0625 0  0.6875 0.0625 0  0.71875 0.0625 0  0.75 0.0625 0  0.78125 0.0625 0  0.8125 0.0625 0  0.84375 0.0625 0  0.875 0.0625 0  0.90625 0.0625 0  0.9375 0.0625 0  0.96875 0.0625 0  1 0.0625 0  0 0.09375 0  0.03125 0.09375 0  0.0625 0.09375 0  0.09375 0.09375 0  0.125 0.09375 0  0.15625 0.09375 0  0.1875 0.09375 0  0.21875 0.09375 0  0.25 0.09375 0  0.28125 0.09375 0  0.3125 0.09375 0  0.34375 0.09375 0  0.375 0.09375 0  0.40625 0.09375 0  0.4375 0.09375 0  0.46875 0.09375 0  0.5 0.09375 0  0.53125 0.09375 0  0.5625 0.09375 0  0.59375 0.09375 0  0.625 0.09375 0  0.65625 0.09375 0  0.6875 0.09375 0  0.71875 0.09375 0  0.75 0.09375 0  0.78125 0.09375 0  0.8125 0.09375 0  0.84375 0.09375 0  0.875 0.09375 0  0.90625 0.09375 0  0.9375 0.09375 0  0.96875 0.09375 0  1 0.09375 0  0 0.125 0  0.03125 0.125 0  0.0625 0.125 0  0.09375 0.125 0  0.125 0.125 0  0.15625 0.125 0  0.1875 0.125 0  0.21875 0.125 0  0.25 0.125 0  0.28125 0.125 0  0.3125 0.125 0  0.34375 0.125 0  0.375 0.125 0  0.40625 0.125 0  0.4375 0.125 0  0.46875 0.125 0  0.5 0.125 0  0.53125 0.125 0  0.5625 0.125 0  0.59375 0.125 0  0.625 0.125 0  0.65625 0.125 0  0.6875 0.125 0  0.71875 0.125 0  0.75 0.125 0  0.78125 0.125 0  0.8125 0.125 0  0.84375 0.125 0  0.875 0.125 0  0.90625 0.125 0  0.9375 0.125 0  0.96875 0.125 0  1 0.125 0  0 0.15625 0  0.03125 0.15625 0  0.0625 0.15625 0  0.09375 0.15625 0  0.125 0.15625 0  0.15625 0.15625 0  0.1875 0.15625 0  0.21875 0.15625 0  0.25 0.15625 0  0.28125 0.15625 0  0.3125 0.15625 0  0.34375 0.15625 0  0.375 0.15625 0  0.40625 0.15625 0  0.4375 0.15625 0  0.46875 0.15625 0  0.5 0.15625 0  0.53125 0.15625 0  0.5625 0.15625 0  0.59375 0.15625 0  0.625 0.15625 0  0.65625 0.15625 0  0.6875 0.15625 0  0.71875 0.15625 0  0.75 0.15625 0  0.78125 0.15625 0  0.8125 0.15625 0  0.84375 0.15625 0  0.875 0.15625 0  0.90625 0.15625 0  0.9375 0.15625 0  0.96875 0.15625 0  1 0.15625 0  0 0.1875 0  0.03125 0.1875 0  0.0625 0.1875 0  0.09375 0.1875 0  0.125 0.1875 0  0.15625 0.1875 0  0.1875 0.1875 0  0.21875 0.1875 0  0.25 0.1875 0  0.28125 0.1875 0  0.3125 0.1875 0  0.34375 0.1875 0  0.375 0.1875 0  0.40625 0.1875 0  0.4375 0.1875 0  0.46875 0.1875 0  0.5 0.1875 0  0.53125 0.1875 0  0.5625 0.1875 0  0.59375 0.1875 0  0.625 0.1875 0  0.65625 0.1875 0  0.6875 0.1875 0  0.71875 0.1875 0  0.75 0.1875 0  0.78125 0.1875 0  0.8125 0.1875 0  0.84375 0.1875 0  0.875 0.1875 0  0.90625 0.1875 0  0.9375 0.1875 0  0.96875 0.1875 0  1 0.1875 0  0 0.21875 0  0.03125 0.21875 0  0.0625 0.21875 0  0.09375 0.21875 0  0.125 0.21875 0  0.15625 0.21875 0  0.1875 0.21875 0  0.21875 0.21875 0  0.25 0.21875 0  0.28125 0.21875 0  0.3125 0.21875 0  0.34375 0.21875 0  0.375 0.21875 0  0.40625 0.21875 0  0.4375 0.21875 0  0.46875 0.21875 0  0.5 0.21875 0  0.53125 0.21875 0  0.5625 0.21875 0  0.59375 0.21875 0  0.625 0.21875 0  0.65625 0.21875 0  0.6875 0.21875 0  0.71875 0.21875 0  0.75 0.21875 0  0.78125 0.21875 0  0.8125 0.21875 0  0.84375 0.21875 0  0.875 0.21875 0  0.90625 0.21875 0  0.9375 0.21875 0  0.96875 0.21875 0  1 0.21875 0  0 0.25 0  0.03125 0.25 0  0.0625 0.25 0  0.09375 0.25 0  0.125 0.25 0  0.15625 0.25 0  0.1875 0.25 0  0.21875 0.25 0  0.25 0.25 0  0.28125 0.25 0  0.3125 0.25 0  0.34375 0.25 0  0.375 0.25 0  0.40625 0.25 0  0.4375 0.25 0  0.46875 0.25 0  0.5 0.25 0  0.53125 0.25 0  0.5625 0.25 0  0.59375 0.25 0  0.625 0.25 0  0.65625 0.25 0  0.6875 0.25 0  0.71875 0.25 0  0.75 0.25 0  0.78125 0.25 0  0.8125 0.25 0  0.84375 0.25 0  0.875 0.25 0  0.90625 0.25 0  0.9375 0.25 0  0.96875 0.25 0  1 0.25 0  0 0.28125 0  0.03125 0.28125 0  0.0625 0.28125 0  0.09375 0.28125 0  0.125 0.28125 0  0.15625 0.28125 0  0.1875 0.28125 0  0.21875 0.28125 0  0.25 0.28125 0  0.28125 0.28125 0  0.3125 0.28125 0  0.34375 0.28125 0  0.375 0.28125 0  0.40625 0.28125 0  0.4375 0.28125 0  0.46875 0.28125 0  0.5 0.28125 0  0.53125 0.28125 0  0.5625 0.28125 0  0.59375 0.28125 0  0.625 0.28125 0  0.65625 0.28125 0  0.6875 0.28125 0  0.71875 0.28125 0  0.75 0.28125 0  0.78125 0.28125 0  0.8125 0.28125 0  0.84375 0.28125 0  0.875 0.28125 0  0.90625 0.28125 0  0.9375 0.28125 0  0.96875 0.28125 0  1 0.28125 0  0 0.3125 0  0.03125 0.3125 0  0.0625 0.3125 0  0.09375 0.3125 0  0.125 0.3125 0  0.15625 0.3125 0  0.1875 0.3125 0  0.21875 0.3125 0  0.25 0.3125 0  0.28125 0.3125 0  0.3125 0.3125 0  0.34375 0.3125 0  0.375 0.3125 0  0.40625 0.3125 0  0.4375 0.3125 0  0.46875 0.3125 0  0.5 0.3125 0  0.53125 0.3125 0  0.5625 0.3125 0  0.59375 0.3125 0  0.625 0.3125 0  0.65625 0.3125 0  0.6875 0.3125 0  0.71875 0.3125 0  0.75 0.3125 0  0.78125 0.3125 0  0.8125 0.3125 0  0.84375 0.3125 0  0.875 0.3125 0  0.90625 0.3125 0  0.9375 0.3125 0  0.96875 0.3125 0  1 0.3125 0  0 0.34375 0  0.03125 0.34375 0  0.0625 0.34375 0  0.09375 0.34375 0  0.125 0.34375 0  0.15625 0.34375 0  0.1875 0.34375 0  0.21875 0.34375 0  0.25 0.34375 0  0.28125 0.34375 0  0.3125 0.34375 0  0.34375 0.34375 0  0.375 0.34375 0  0.40625 0.34375 0  0.4375 0.34375 0  0.46875 0.34375 0  0.5 0.34375 0  0.53125 0.34375 0  0.5625 0.34375 0  0.59375 0.34375 0  0.625 0.34375 0  0.65625 0.34375 0  0.6875 0.34375 0  0.71875 0.34375 0  0.75 0.34375 0  0.78125 0.34375 0  0.8125 0.34375 0  0.84375 0.34375 0  0.875 0.34375 0  0.90625 0.34375 0  0.9375 0.34375 0  0.96875 0.34375 0  1 0.34375 0  0 0.375 0  0.03125 0.375 0  0.0625 0.375 0  0.09375 0.375 0  0.125 0.375 0  0.15625 0.375 0  0.1875 0.375 0  0.21875 0.375 0  0.25 0.375 0  0.28125 0.375 0  0.3125 0.375 0  0.34375 0.375 0  0.375 0.375 0  0.40625 0.375 0  0.4375 0.375 0  0.46875 0.375 0  0.5 0.375 0  0.53125 0.375 0  0.5625 0.375 0  0.59375 0.375 0  0.625 0.375 0  0.65625 0.375 0  0.6875 0.375 0  0.71875 0.375 0  0.75 0.375 0  0.78125 0.375 0  0.8125 0.375 0  0.84375 0.375 0  0.875 0.375 0  0.90625 0.375 0  0.9375 0.375 0  0.96875 0.375 0  1 0.375 0  0 0.40625 0  0.03125 0.40625 0  0.0625 0.40625 0  0.09375 0.40625 0  0.125 0.40625 0  0.15625 0.40625 0  0.1875 0.40625 0  0.21875 0.40625 0  0.25 0.40625 0  0.28125 0.40625 0  0.3125 0.40625 0  0.34375 0.40625 0  0.375 0.40625 0  0.40625 0.40625 0  0.4375 0.40625 0  0.46875 0.40625 0  0.5 0.40625 0  0.53125 0.40625 0  0.5625 0.40625 0  0.59375 0.40625 0  0.625 0.40625 0  0.65625 0.40625 0  0.6875 0.40625 0  0.71875 0.40625 0  0.75 0.40625 0  0.78125 0.40625 0  0.8125 0.40625 0  0.84375 0.40625 0  0.875 0.40625 0  0.90625 0.40625 0  0.9375 0.40625 0  0.96875 0.40625 0  1 0.40625 0  0 0.4375 0  0.03125 0.4375 0  0.0625 0.4375 0  0.09375 0.4375 0  0.125 0.4375 0  0.15625 0.4375 0  0.1875 0.4375 0  0.21875 0.4375 0  0.25 0.4375 0  0.28125 0.4375 0  0.3125 0.4375 0  0.34375 0.4375 0  0.375 0.4375 0  0.40625 0.4375 0  0.4375 0.4375 0  0.46875 0.4375 0  0.5 0.4375 0  0.53125 0.4375 0  0.5625 0.4375 0  0.59375 0.4375 0  0.625 0.4375 0  0.65625 0.4375 0  0.6875 0.4375 0  0.71875 0.4375 0  0.75 0.4375 0  0.78125 0.4375 0  0.8125 0.4375 0  0.84375 0.4375 0  0.875 0.4375 0  0.90625 0.4375 0  0.9375 0.4375 0  0.96875 0.4375 0  1 0.4375 0  0 0.46875 0  0.03125 0.46875 0  0.0625 0.46875 0  0.09375 0.46875 0  0.125 0.46875 0  0.15625 0.46875 0  0.1875 0.46875 0  0.21875 0.46875 0  0.25 0.46875 0  0.28125 0.46875 0  0.3125 0.46875 0  0.34375 0.46875 0  0.375 0.46875 0  0.40625 0.46875 0  0.4375 0.46875 0  0.46875 0.46875 0  0.5 0.46875 0  0.53125 0.46875 0  0.5625 0.46875 0  0.59375 0.46875 0  0.625 0.46875 0  0.65625 0.46875 0  0.6875 0.46875 0  0.71875 0.46875 0  0.75 0.46875 0  0.78125 0.46875 0  0.8125 0.46875 0  0.84375 0.46875 0  0.875 0.46875 0  0.90625 0.46875 0  0.9375 0.46875 0  0.96875 0.46875 0  1 0.46875 0  0 0.5 0  0.03125 0.5 0  0.0625 0.5 0  0.09375 0.5 0  0.125 0.5 0  0.15625 0.5 0  0.1875 0.5 0  0.21875 0.5 0  0.25 0.5 0  0.28125 0.5 0  0.3125 0.5 0  0.34375 0.5 0  0.375 0.5 0  0.40625 0.5 0  0.4375 0.5 0  0.46875 0.5 0  0.5 0.5 0  0.53125 0.5 0  0.5625 0.5 0  0.59375 0.5 0  0.625 0.5 0  0.65625 0.5 0  0.6875 0.5 0  0.71875 0.5 0  0.75 0.5 0  0.78125 0.5 0  0.8125 0.5 0  0.84375 0.5 0  0.875 0.5 0  0.90625 0.5 0  0.9375 0.5 0  0.96875 0.5 0  1 0.5 0  0 0.53125 0  0.03125 0.53125 0  0.0625 0.53125 0  0.09375 0.53125 0  0.125 0.53125 0  0.15625 0.53125 0  0.1875 0.53125 0  0.21875 0.53125 0  0.25 0.53125 0  0.28125 0.53125 0  0.3125 0.53125 0  0.34375 0.53125 0  0.375 0.53125 0  0.40625 0.53125 0  0.4375 0.53125 0  0.46875 0.53125 0  0.5 0.53125 0  0.53125 0.53125 0  0.5625 0.53125 0  0.59375 0.53125 0  0.625 0.53125 0  0.65625 0.53125 0  0.6875 0.53125 0  0.71875 0.53125 0  0.75 0.53125 0  0.78125 0.531
[...]
<PointData  Scalars="theta"> 
<DataArray  type="Float64"  Name="theta"  format="ascii">1.5763203075528308e-16  1.0092979410537990e-05  6.8683173609007715e-06  -6.0413666172968035e-06  -9.2034598909974474e-06  -1.7792043924521662e-05  1.1889996485713820e-05  1.9903682693014058e-05  9.2034598910378458e-06  0.0000000000000000e+00  -7.4764213602999835e-05  -8.4207300058486266e-05  -5.3826194514422584e-05  2.8688259114772430e-16  0.0000000000000000e+00  1.1148334263252178e-05  3.5798024564261478e-05  4.3596281534804740e-05  1.4347185206435840e-05  3.1839920173546557e-06  -1.2602113601558084e-05  -1.0931050147384339e-04  -4.7863844096007228e-05  -1.3483613628089393e-04  -6.8564170249019814e-05  0.0000000000000000e+00  -7.5812006556890039e-05  -4.5423785986551995e-05  -7.6496361963447433e-06  -3.7392532530943635e-05  -2.8427444604025990e-05  -2.3429669999904873e-05  -2.0373458817584237e-05  -1.0862692638791410e-05  1.4711451021534432e-16  9.1616094167840035e-06  6.4215387741986162e-06  -5.6495513751394788e-06  -6.2670735119767398e-06  -1.6592998819942672e-05  1.1148261151859331e-05  1.7690740126362478e-05  6.2670735120042489e-06  -1.7537578179250816e-05  -6.9900860916416110e-05  -7.8588822622559224e-05  -5.0234804467110108e-05  2.6822110655295552e-16  6.1405550844670576e-05  7.5914309608968583e-06  3.1817908241964104e-05  4.0876608532555624e-05  1.3380296733180932e-05  2.1681315799319632e-06  -1.1784798496338072e-05  -1.0219994021204074e-04  -4.3447016679298580e-05  -1.2583960286020938e-04  -6.3148528189611758e-05  -1.2189558197473789e-04  -7.1043858023636533e-05  -4.0373452784476092e-05  0.0000000000000000e+00  -3.4872567243692692e-05  -2.6639518331541476e-05  -2.1910129404835584e-05  -5.2141854086679655e-06  -9.6549505691656962e-06  1.3720013871117285e-16  8.1429981492041974e-06  5.9930810195656267e-06  -5.2533191453368460e-06  -3.1812777641907024e-06  -1.5479686578439635e-05  1.0425236227276399e-05  1.5257224353086825e-05  3.1812777642046666e-06  -1.6442464387093622e-05  -6.5236937366581568e-05  -7.3292548431692776e-05  -4.6849370133016831e-05  2.5032486437489642e-16  5.7571152220317245e-05  3.8535451144999531e-06  2.7441077141264537e-05  3.8225539778525961e-05  1.2482541703506020e-05  1.1005820774075531e-06  -1.0958269684417416e-05  -9.5380958275372233e-05  -3.8616465766356877e-05  -1.1735899431338919e-04  -5.7321245490102397e-05  -1.1428395329607015e-04  -6.6640912311963468e-05  -3.4819731828154283e-05  -4.5707534484818927e-05  -3.2532781866357573e-05  -2.4988533204018233e-05  1.7862062893676839e-06  -4.8700353232006946e-06  -8.3268278149769754e-06  1.2799465417998124e-16  7.0228576521815101e-06  5.5891940637813362e-06  -4.8383779885832342e-06  0.0000000000000000e+00  -1.4457986151346935e-05  9.6940605422954090e-06  1.2590398240853253e-05  0.0000000000000000e+00  -1.5372895144037739e-05  -6.0840476188823501e-05  -6.8374962872541891e-05  -4.3705997567166529e-05  2.3345491933336918e-16  5.3826194514921601e-05  0.0000000000000000e+00  2.2644622728943185e-05  3.5544585158216726e-05  1.1658660798356577e-05  0.0000000000000000e+00  -1.0092714599513348e-05  -8.8953025005012316e-05  -3.3304433715727725e-05  -1.0948475732721233e-04  -5.0948122180462078e-05  -1.0684987294517951e-04  -6.2483642845864503e-05  -2.8733554689289222e-05  -4.2853380341743056e-05  -3.0385531858488116e-05  3.3990383382659911e-06  9.0671002019739602e-07  -4.5562032619568571e-06  -6.8713729212721003e-06  1.1954666705965989e-16  5.7953250593644010e-06  5.2141854086933121e-06  -4.3918973317118660e-06  -5.3411905956193732e-05  -1.3526292786886901e-05  8.9283608800865798e-06  9.6970676600160757e-06  1.1785738894213679e-05  -1.4347185206399811e-05  -5.6758366158267546e-05  -6.3862033724052298e-05  -4.0821285647799767e-05  2.1779119137476973e-16  5.0234804467575841e-05  9.6064670591273355e-05  1.7440785790681912e-05  3.2737043702265075e-05  1.0907359974672555e-05  -2.4584705718311887e-05  -9.1613690422545048e-06  -8.2984695064689456e-05  -2.7483117109848129e-05  -1.0225847256010636e-04  -4.3939763114683261e-05  -9.9720638309260795e-05  -5.8431241261357019e-05  -2.2130453588887184e-05  -4.0065802002179704e-05  -5.0694184348896894e-06  3.1305602845041291e-06  0.0000000000000000e+00  -4.2696437196447560e-06  -5.2923002799522412e-06  1.1184290837038894e-16  4.4635330938217213e-06  4.8700353232243675e-06  -3.9035949052910547e-06  -5.0076661244513178e-05  -1.2675565098209323e-05  8.1044607135572267e-06  6.6031945155080887e-06  1.1049792055836236e-05  -1.3380296733147332e-05  -5.3012163245751532e-05  -5.9746672674541306e-05  -3.8190703451313196e-05  2.0341639430655544e-16  4.6849370133451183e-05  9.0066023307807047e-05  1.1876260444592101e-05  2.9716102219250854e-05  1.0221348420211510e-05  -2.3049542194986725e-05  -8.1427845001323204e-06  -7.7507484789137668e-05  -2.1167372232721503e-05  -9.5668789920578187e-05  -3.6259486222386843e-05  -9.3000244424361702e-05  -5.4333156390936405e-05  -1.5069678266388818e-05  -1.3546056693481165e-05  -4.7427378399564815e-06  2.8416753285335640e-06  4.0879668324552874e-06  -4.0050323932226001e-06  -3.6037789369146896e-06  1.0480861889935514e-16  3.0394319477052689e-06  4.5562032619790045e-06  -3.3666213413445521e-06  -4.6819214221906172e-05  -1.1889996485457108e-05  7.2033859542072359e-06  3.3518987522113887e-06  1.0331011862864523e-05  -1.2482541703474673e-05  -4.9595983411664651e-05  -5.5988943224838444e-05  -3.5788723146140161e-05  1.9030795010043430e-16  4.3705997567571736e-05  8.4207300058876091e-05  6.0286006222705780e-06  2.6412189645371720e-05  9.5878799762636402e-06  -2.1550187790568623e-05  -7.0226733924049730e-06  -7.2512791301531922e-05  -1.4413870371467851e-05  -8.9651761470135657e-05  -2.7926891944926856e-05  -8.6760365081034295e-05  -5.0041571939429713e-05  2.4002201522392433e-07  -1.2664896469384143e-05  -4.4444463225274494e-06  2.5257305663452726e-06  3.8326984701793858e-06  -3.7551858905045918e-06  -1.8293421606043005e-06  9.8313100891651217e-17  1.5428696109160142e-06  4.2696437196655100e-06  -2.7781660957949894e-06  -4.3695343744038931e-05  -1.1148261151618635e-05  6.2124973189469558e-06  0.0000000000000000e+00  9.6417063394540382e-06  -1.1658660798327300e-05  -4.6476675187285483e-05  -5.2519026411045873e-05  -3.3570715714025113e-05  1.7833865111535949e-16  4.0821285648178228e-05  7.8588822622923041e-05  0.0000000000000000e+00  2.2778962338336719e-05  8.9897579024938480e-06  -2.0112316682514996e-05  -5.7951730065458354e-06  -6.7952144839456525e-05  -7.3167364673554896e-06  -8.4095590258578682e-05  -1.9016748793688657e-05  -8.1033950556500274e-05  1.5947829752905157e-06  1.2183943566145721e-07  -1.1819869553758488e-05  -4.1690015983681454e-06  2.1782942732143602e-06  3.5833844801896040e-06  -3.5116418114511383e-06  0.0000000000000000e+00  9.2180020802034929e-17  0.0000000000000000e+00  4.0050323932420692e-06  -2.1397309351400613e-06  -4.0750618099731331e-05  -1.0425236227051312e-05  5.1266084515530079e-06  5.0693091087954871e-05  8.9919304713663370e-06  -1.0907359974645164e-05  -4.3596281534668842e-05  -4.9242724552124746e-05  -3.1476469003540772e-05  1.6728610665905072e-16  3.8190703451667263e-05  7.3292548432032077e-05  7.9743717864221529e-05  1.8797403821032023e-05  8.4067235672795725e-06  -1.8756903276263507e-05  -4.4634159834300314e-06  -6.3740808165984610e-05  0.0000000000000000e+00  -7.8849443147342393e-05  -9.6532392621448838e-06  3.0145258342212324e-17  1.3160292004605721e-06  0.0000000000000000e+00  -1.1023302459762996e-05  -3.9089261815149130e-06  1.7975479517668678e-06  3.3442939876525807e-06  -3.2653522261679021e-06  -2.4585350767555104e-05  8.6201648777862480e-17  2.9150239511495303e-05  3.7551858905228458e-06  -1.4570445490277650e-06  -3.8016443134039218e-05  -9.6940605420861071e-06  3.9484905933960909e-06  4.7527619627181501e-05  8.3886141945951618e-06  -1.0221348420185841e-05  -4.0876608532428203e-05  -4.6049068005998713e-05  -2.9435050048834423e-05  1.5685027378718599e-16  3.5788723146471961e-05  6.8374962872858438e-05  7.4764213603232898e-05  1.4477675225056195e-05  7.8171166050249316e-06  -1.7498403215077779e-05  -3.0393522016703616e-06  -5.9764456307347951e-05  -1.5382263778280077e-04  -7.3735631055175425e-05  -2.2919604142255221e-06  2.6793631088246681e-17  1.0135997253855070e-06  -4.0879668324250543e-06  -1.0283690669066379e-05  -3.6554112145535674e-06  1.3844632851919491e-06  3.1189146354444231e-06  -3.0074335670404044e-06  -2.3050146964875766e-05  8.0155881735506386e-17  2.7329986509202617e-05  3.5116418114682086e-06  -7.3962167770954684e-07  -3.5507256918299410e-05  -8.9283608798938103e-06  2.6887150162263717e-06  4.4435985736291384e-05  7.8349433782059533e-06  -9.5878799762395624e-06  -3.8225539778406807e-05  -4.2819408926051066e-05  -2.7370617894712488e-05  1.4667768670557836e-16  3.3570715714336340e-05  6.3862033724347946e-05  6.9900860916634021e-05  9.8585375491996832e-06  7.1996701265549990e-06  -1.6343462128403184e-05  -1.5428291304130887e-06  -5.5888408650610615e-05  -1.4421736101880343e-04  -7.9703618945299432e-07  -2.0804606112582411e-06  2.3107933180140900e-17  6.9020825493291325e-07  -3.8326984701510416e-06  -9.6049397721775203e-06  -3.3990383381581651e-06  9.4274688928865669e-07  2.9096501208426404e-06  -2.7299106207808071e-06  -2.1550753220656943e-05  7.3824651256684201e-17  2.5552192603422884e-05  3.2653522261837750e-06  0.0000000000000000e+00  -3.3219118354971543e-05  -8.1044607133822450e-06  1.3648394707705711e-06  4.1471128971745735e-05  7.3300483893755399e-06  -8.9897579024712729e-06  -3.5544585158105927e-05  -3.9437254790783451e-05  -2.5208709292533917e-05  1.3639042263689673e-16  3.1476469003832585e-05  5.9746672674817900e-05  6.5236937366784938e-05  5.0043686631044030e-06  6.5352918049467044e-06  -1.5290265987672440e-05  0.0000000000000000e+00  -5.1968665770282276e-05  2.6158604890165324e-07  -7.2348649113324236e-07  -1.8491496566020330e-06  1.9068873507266619e-17  3.5036196238687006e-07  -3.5833844801631033e-06  -8.9859836770409667e-06  -3.1305602844048200e-06  4.7855505610751620e-07  2.7176054850490575e-06  -2.4263921458806597e-06  -2.0112844385990649e-05  6.7012186653017355e-17  2.3847299827130565e-05  3.0074335670550238e-06  -5.0693091087732352e-05  -3.1129822771674027e-05  -7.2033859540517097e-06  0.0000000000000000e+00  3.8676298069468013e-05  6.8690296000858659e-06  -8.4067235672584627e-06  -3.2737043702163025e-05  -3.5798024564095758e-05  -2.2882474940780503e-05  1.2561742404812757e-16  2.9435050049107313e-05  5.5988943225097650e-05  6.0840476189013162e-05  0.0000000000000000e+00  5.8086812754424408e-06  -1.4328594312520736e-05  -1.1659088444889111e-04  3.6210603705625789e-07  2.3250224007164975e-07  -6.4304740469281772e-07  -1.5947829752565436e-06  1.4686759946976938e-17  0.0000000000000000e+00  -3.3442939876278477e-06  -8.4208158779619319e-06  -2.8416753284434185e-06  0.0000000000000000e+00  2.5424790897727338e-06  -2.0926207198704102e-06  -1.8757395416637371e-05  5.9561599612614416e-17  2.2240177664187893e-05  2.7299106207940780e-06  -4.7527619626972880e-05  -2.9200550861467750e-05  -6.2124973188128239e-06  5.3411905956578569e-05  3.6081300229474930e-05  6.4433212382033921e-06  -7.8171166050053008e-06  -2.9716102219158222e-05  -3.1817908241816808e-05  -2.0338342600660129e-05  1.1402557443740292e-16  2.7370617894966238e-05  5.2519026411289005e-05  5.6758366158444481e-05  1.7537578179294851e-05  5.0096464467833746e-06  -1.3440579153467485e-05  -1.5671635563849722e-07  2.9881314624786703e-07  2.0051952682760979e-07  -5.5459061932904404e-07  -1.3160292004325380e-06  1.0000913279417215e-17  1.9414895736510449e-06  -3.1189146354213567e-06  -7.8989355044843893e-06  -2.5257305662651500e-06  1.4448261689503615e-05  2.3825714644069495e-06  -1.7268493679126506e-06  -1.7498862335145386e-05  5.1368381516395103e-17  2.0747966261328989e-05  2.4263921458924550e-06  -4.4435985736096336e-05  -2.7378928763598352e-05  -5.1266084514423211e-06  5.0076661244873980e-05  3.3699838585034431e-05  6.0413666173174305e-06  -7.1996701265369191e-06  -2.6412189645289385e-05  -2.7441077141137503e-05  -1.7540625989175014e-05  1.0134791818397038e-16  2.5208709292767624e-05  4.9242724552352713e-05  5.3012163245916778e-05  1.6442464387134910e-05  4.1340051343032911e-06  -1.1884901822002990e-06  -7.9552004061382040e-08  2.3014453089066660e-07  1.6547051019252308e-07  -4.5765314820066968e-07  -1.0135997253639153e-06  5.0766411111355067e-18  1.8202555020076662e-06  -2.9096501208211220e-06  -7.4061750927758180e-06  -2.1782942731452592e-06  1.3546056693628425e-05  2.2349115103476554e-06  -1.3300115563437594e-06  -1.6343890945326940e-05  4.2389648687878811e-17  1.9378545382999968e-05  2.0926207198805830e-06  -4.1471128971563691e-05  -2.5603257415859911e-05  -3.9484905933108412e-06  4.6819214222243507e-05  3.1528172651454481e-05  5.6495513751587683e-06  -6.5352918049302932e-06  -2.2778962338265710e-05  -2.2644622728838356e-05  -1.4474681730225268e-05  8.7406627105830848e-17  2.2882474940992644e-05  4.6049068006211894e-05  4.9595983411819251e-05  1.5372895144076343e-05  -4.6665751196320621e-07  -1.1111798402327581e-06  0.0000000000000000e+00  1.5671635564816841e-07  1.2744463696690292e-07  -3.5248238046364624e-07  -6.9020825491821045e-07  0.0000000000000000e+00  1.7018493279928489e-06  -2.7176054850289600e-06  -6.9258446524533706e-06  -1.7975479517098447e-06  1.2664896469521823e-05  2.0954907092351615e-06  -9.0566811765412906e-07  -1.5290667171018587e-05  3.2648315291321179e-17  1.8129764124169767e-05  1.7268493679210452e-06  -3.8676298069298241e-05  -2.3807568678389763e-05  -2.6887150161683203e-06  4.3695343744353756e-05  2.9545228036060527e-05  5.2533191453547828e-06  -5.8086812754278549e-06  -1.8797403820973425e-05  -1.7440785790601173e-05  -1.1148334263148821e-05  7.2128731850857264e-17  2.0338342600848686e-05  4.2819408926249299e-05  4.6476675187430366e-05  6.3035416054549539e-08  -4.3658543257260292e-07  -1.0370397258333108e-06  1.2676469290854466e-06  7.9552004066291298e-08  8.6783113963482206e-08  -2.4002201522093177e-07  -3.5036196237940675e-07  5.5829550858073318e-06  1.5882985783305959e-06  -2.5424790897539314e-06  -6.4400993803625422e-06  -1.3844632851480302e-06  1.1819869553886983e-05  1.9595868232953977e-06  -4.5973321342464298e-07  -1.4328970263692318e-05  2.2231790478388131e-17  1.6989503997272545e-05  1.3300115563502248e-06  -3.6081300229316548e-05  -2.1927092770949219e-05  -1.3648394707411037e-06  4.0750618100024947e-05  2.7714161442823214e-05  4.8383779885997539e-06  -5.0096464467707945e-06  -1.4477675225011064e-05  -1.1876260444537120e-05  -7.5914309608264775e-06  5.5553222353157163e-17  1.7540625989337631e-05  3.9437254790966024e-05  2.2186030885070573e-18  5.8056470795277115e-08  -4.0912666601959297e-07  -9.6715133011051311e-07  1.1884901822736421e-06  0.0000000000000000e+00  4.4052649172160891e-08  -1.2183943565993814e-07  0.0000000000000000e+00  5.2343339105817045e-06  1.4812596319882758e-06  -2.3825714643893291e-06  -5.9314186372807315e-06  -9.4274688925875008e-07  1.1023302459882829e-05  1.8221508739733115e-06  0.0000000000000000e+00  -1.3440931805051392e-05  1.1285251492882956e-17  1.5936578862725993e-05  9.0566811765853162e-07  -3.3699838584886499e-05  -1.9903682692870648e-05  0.0000000000000000e+00  3.8016443134313129e-05  2.5985264986462690e-05  4.3918973317268610e-06  -4.1340051342929098e-06  -9.8585375491689512e-06  -6.0286006222426700e-06  -3.8535451144642270e-06  3.7828830943782498e-17  1.4474681730359461e-05  1.2773120336490673e-17  1.1262023111016785e-18  5.2699078033183528e-08  -3.8377102585879613e-07  -9.0226002101791724e-07  1.1111798403013305e-06  7.0197107032820589e-07  0.0000000000000000e+00  0.0000000000000000e+00  8.0895366372381960e-17  4.8938446489454080e-06  1.3818740719076705e-06  -2.2349115103311268e-06  -5.3840732881573079e-06  -4.7855505609233504e-07  1.0283690669178172e-05  1.6782256011108708e-06  -2.9150239511303450e-05  -1.2602444253628312e-05  0.0000000000000000e+00  1.4942405007633151e-05  4.5973321342687783e-07  -3.1528172651316089e-05  -1.7690740126235013e-05  2.1748472387636978e-05  3.5507256918555248e-05  2.4299980258990088e-05  3.9035949053043820e-06  -3.1839920173466602e-06  -5.0043686630888023e-06  0.0000000000000000e+00  0.0000000000000000e+00  1.9202586102875616e-17  -5.2699078029181065e-08  1.1930060469808641e-17  0.0000000000000000e+00  4.6839859173959192e-08  -3.5983018362801187e-07  -8.4270846329409195e-07  1.0370397258973077e-06  6.5813729847244997e-07  -1.9414895736268393e-06  -5.5829550856884050e-06  7.5843948751856838e-17  4.5673176647536018e-06  1.2906667130052713e-06  -2.0954907092196638e-06  -4.7854581903836207e-06  0.0000000000000000e+00  9.6049397722819358e-06  1.5233606297236858e-06  -2.7329986509022741e-05  -1.1785107703836374e-05  2.4585350767871901e-05  1.3973309369617020e-05  0.0000000000000000e+00  -2.9545228035930839e-05  -1.5257224352976894e-05  2.0390414175344604e-05  3.3219118355210887e-05  2.2595697082710114e-05  3.3666213413560464e-06  -2.1681315799265180e-06  0.0000000000000000e+00  -6.1405550844101302e-05  3.0598976844787826e-16  -1.2396346252188576e-07  -4.6839859170401727e-08  1.1161270262031872e-17  1.4141896468710982e-07  4.0396627556533500e-08  -3.3649325351520103e-07  -7.8840312123562893e-07  9.6715133017019717e-07  6.1532599016841239e-07  -1.8202555019849721e-06  -5.2343339104702036e-06  7.0910360151806863e-17  4.2595160479066394e-06  1.2074942988357900e-06  -1.9595868232809054e-06  -4.1271766314738401e-06  7.6256890620566843e-06  8.9859836771386534e-06  1.3539894819883012e-06  -2.5552192603254707e-05  -1.0958557205596151e-05  2.3050146965172780e-05  1.2993288981872748e-05  -1.1785738894173441e-05  -2.7714161442701563e-05  -1.2590398240762536e-05  1.9064033935638075e-05  3.1129822771898328e-05  2.0810942639706870e-05  2.7781660958044749e-06  -1.1005820774047892e-06  -9.6064670590828615e-05  -5.7571152219783505e-05  7.3947563940117674e-19  -1.1569237537653309e-07  -4.0396627553465408e-08  1.0459289179533842e-17  1.3258822094823512e-07  3.3335659013317325e-08  -3.1289324294788784e-07  -7.3881700213836958e-07  9.0226002107359674e-07  5.7427022434882801e-07  -1.7018493279716309e-06  -4.8938446488411603e-06  6.6179080818427551e-17  3.9737225388205301e-06  1.1315497033634969e-06  -1.8221508739598358e-06  -3.4057831357828744e-06  7.1495117255279260e-06  8.4208158780534742e-06  1.1677364062134913e-06  -2.3847299826973613e-05  -1.0092979410407940e-05  2.1550753220934634e-05  1.1966994897882438e-05  -1.1049792055798511e-05  -2.5985264986348632e-05  -9.6970676599462057e-06  1.7792043924905805e-05  2.9200550861678146e-05  1.8890529773698140e-05  2.1397309351473669e-06  0.0000000000000000e+00  -9.0066023307390090e-05  1.4735944519186992e-18  6.7123757077585020e-19  -1.0789561088332287e-07  -3.3335659010785504e-08  9.8110743482833289e-18  1.2396346253130072e-07  2.5674973480541439e-08  -2.8817890890929578e-07  -6.9302879128143645e-07  8.4270846334609638e-07  5.3556888659741213e-07  -1.5882985783107936e-06  -4.5673176646563091e-06  6.1719126514273240e-17  3.7114462973418687e-06  1.0614218689163351e-06  -1.6782256010984592e-06  -2.6231187347089085e-06  6.6844416688462501e-06  7.8989355045702581e-06  9.6362654532218975e-07  -2.2240177664041513e-05  -9.1616094166659525e-06  2.0112844386249811e-05  1.0862692638862903e-05  -1.0331011862829253e-05  -2.4299980258883423e-05  -6.6031945154605101e-06  1.6592998820300923e-05  2.7378928763795626e-05  1.6790232151013057e-05  1.4570445490327394e-06  -7.9743717863972949e-05  5.1453906141413136e-19  1.3742856697909380e-18  5.9660765350797490e-19  -1.0065632245183809e-07  -2.5674973478591444e-08  9.1990287084095948e-18  1.1569237538531985e-07  1.7483310420899527e-08  -2.6158604889507180e-07  -6.4979547809336708e-07  7.8840312128428198e-07  4.9963473122940071e-07  -1.4812596319698084e-06  -4.2595160478159027e-06  5.7578063176124184e-17  3.4722753746707997e-06  9.9520703821835549e-07  -1.5233606297124194e-06  -1.7862062893482654e-06  6.2384425136412004e-06  7.4061750928563310e-06  7.421