<?xml version="1.0"?>
<VTKFile type="UnstructuredGrid"  version="0.1"  >
<UnstructuredGrid>
<Piece  NumberOfPoints="1089" NumberOfCells="2048">
<Points>
<DataArray  type="Float64"  NumberOfComponents="3"  format="ascii">0 0 0  0.03125 0 0  0.0625 0 0  0.09375 0 0  0.125 0 0  0.15625 0 0  0.1875 0 0  0.21875 0 0  0.25 0 0  0.28125 0 0  0.3125 0 0  0.34375 0 0  0.375 0 0  0.40625 0 0  0.4375 0 0  0.46875 0 0  0.5 0 0  0.53125 0 0  0.5625 0 0  0.59375 0 0  0.625 0 0  0.65625 0 0  0.6875 0 0  0.71875 0 0  0.75 0 0  0.78125 0 0  0.8125 0 0  0.84375 0 0  0.875 0 0  0.90625 0 0  0.9375 0 0  0.96875 0 0  1 0 0  0 0.03125 0  0.03125 0.03125 0  0.0625 0.03125 0  0.09375 0.03125 0  0.125 0.03125 0  0.15625 0.03125 0  0.1875 0.03125 0  0.21875 0.03125 0  0.25 0.03125 0  0.28125 0.03125 0  0.3125 0.03125 0  0.34375 0.03125 0  0.375 0.03125 0  0.40625 0.03125 0  0.4375 0.03125 0  0.46875 0.03125 0  0.5 0.03125 0  0.53125 0.03125 0  0.5625 0.03125 0  0.59375 0.03125 0  0.625 0.03125 0  0.65625 0.03125 0  0.6875 0.03125 0  0.71875 0.03125 0  0.75 0.03125 0  0.78125 0.03125 0  0.8125 0.03125 0  0.84375 0.03125 0  0.875 0.03125 0  0.90625 0.03125 0  0.9375 0.03125 0  0.96875 0.03125 0  1 0.03125 0  0 0.0625 0  0.03125 0.0625 0  0.0625 0.0625 0  0.09375 0.0625 0  0.125 0.0625 0  0.15625 0.0625 0  0.1875 0.0625 0  0.21875 0.0625 0  0.25 0.0625 0  0.28125 0.0625 0  0.3125 0.0625 0  0.34375 0.0625 0  0.375 0.0625 0  0.40625 0.0625 0  0.4375 0.0625 0  0.46875 0.0625 0  0.5 0.0625 0  0.53125 0.0625 0  0.5625 0.0625 0  0.59375 0.0625 0  0.625 0.0625 0  0.65625 0.0625 0  0.6875 0.0625 0  0.71875 0.0625 0  0.75 0.0625 0  0.78125 0.0625 0  0.8125 0.0625 0  0.84375 0.0625 0  0.875 0.0625 0  0.90625 0.0625 0  0.9375 0.0625 0  0.96875 0.0625 0  1 0.0625 0  0 0.09375 0  0.03125 0.09375 0  0.0625 0.09375 0  0.09375 0.09375 0  0.125 0.09375 0  0.15625 0.09375 0  0.1875 0.09375 0  0.21875 0.09375 0  0.25 0.09375 0  0.28125 0.09375 0  0.3125 0.09375 0  0.34375 0.09375 0  0.375 0.09375 0  0.40625 0.09375 0  0.4375 0.09375 0  0.46875 0.09375 0  0.5 0.09375 0  0.53125 0.09375 0  0.5625 0.09375 0  0.59375 0.09375 0  0.625 0.09375 0  0.65625 0.09375 0  0.6875 0.09375 0  0.71875 0.09375 0  0.75 0.09375 0  0.78125 0.09375 0  0.8125 0.09375 0  0.84375 0.09375 0  0.875 0.09375 0  0.90625 0.09375 0  0.9375 0.09375 0  0.96875 0.09375 0  1 0.09375 0  0 0.125 0  0.03125 0.125 0  0.0625 0.125 0  0.09375 0.125 0  0.125 0.125 0  0.15625 0.125 0  0.1875 0.125 0  0.21875 0.125 0  0.25 0.125 0  0.28125 0.125 0  0.3125 0.125 0  0.34375 0.125 0  0.375 0.125 0  0.40625 0.125 0  0.4375 0.125 0  0.46875 0.125 0  0.5 0.125 0  0.53125 0.125 0  0.5625 0.125 0  0.59375 0.125 0  0.625 0.125 0  0.65625 0.125 0  0.6875 0.125 0  0.71875 0.125 0  0.75 0.125 0  0.78125 0.125 0  0.8125 0.125 0  0.84375 0.125 0  0.875 0.125 0  0.90625 0.125 0  0.9375 0.125 0  0.96875 0.125 0  1 0.125 0  0 0.15625 0  0.03125 0.15625 0  0.0625 0.15625 0  0.09375 0.15625 0  0.125 0.15625 0  0.15625 0.15625 0  0.1875 0.15625 0  0.21875 0.15625 0  0.25 0.15625 0  0.28125 0.15625 0  0.3125 0.15625 0  0.34375 0.15625 0  0.375 0.15625 0  0.40625 0.15625 0  0.4375 0.15625 0  0.46875 0.15625 0  0.5 0.15625 0  0.53125 0.15625 0  0.5625 0.15625 0  0.59375 0.15625 0  0.625 0.15625 0  0.65625 0.15625 0  0.6875 0.15625 0  0.71875 0.15625 0  0.75 0.15625 0  0.78125 0.15625 0  0.8125 0.15625 0  0.84375 0.15625 0  0.875 0.15625 0  0.90625 0.15625 0  0.9375 0.15625 0  0.96875 0.15625 0  1 0.15625 0  0 0.1875 0  0.03125 0.1875 0  0.0625 0.1875 0  0.09375 0.1875 0  0.125 0.1875 0  0.15625 0.1875 0  0.1875 0.1875 0  0.21875 0.1875 0  0.25 0.1875 0  0.28125 0.1875 0  0.3125 0.1875 0  0.34375 0.1875 0  0.375 0.1875 0  0.40625 0.1875 0  0.4375 0.1875 0  0.46875 0.1875 0  0.5 0.1875 0  0.53125 0.1875 0  0.5625 0.1875 0  0.59375 0.1875 0  0.625 0.1875 0  0.65625 0.1875 0  0.6875 0.1875 0  0.71875 0.1875 0  0.75 0.1875 0  0.78125 0.1875 0  0.8125 0.1875 0  0.84375 0.1875 0  0.875 0.1875 0  0.90625 0.1875 0  0.9375 0.1875 0  0.96875 0.1875 0  1 0.1875 0  0 0.21875 0  0.03125 0.21875 0  0.0625 0.21875 0  0.09375 0.21875 0  0.125 0.21875 0  0.15625 0.21875 0  0.1875 0.21875 0  0.21875 0.21875 0  0.25 0.21875 0  0.28125 0.21875 0  0.3125 0.21875 0  0.34375 0.21875 0  0.375 0.21875 0  0.40625 0.21875 0  0.4375 0.21875 0  0.46875 0.21875 0  0.5 0.21875 0  0.53125 0.21875 0  0.5625 0.21875 0  0.59375 0.21875 0  0.625 0.21875 0  0.65625 0.21875 0  0.6875 0.21875 0  0.71875 0.21875 0  0.75 0.21875 0  0.78125 0.21875 0  0.8125 0.21875 0  0.84375 0.21875 0  0.875 0.21875 0  0.90625 0.21875 0  0.9375 0.21875 0  0.96875 0.21875 0  1 0.21875 0  0 0.25 0  0.03125 0.25 0  0.0625 0.25 0  0.09375 0.25 0  0.125 0.25 0  0.15625 0.25 0  0.1875 0.25 0  0.21875 0.25 0  0.25 0.25 0  0.28125 0.25 0  0.3125 0.25 0  0.34375 0.25 0  0.375 0.25 0  0.40625 0.25 0  0.4375 0.25 0  0.46875 0.25 0  0.5 0.25 0  0.53125 0.25 0  0.5625 0.25 0  0.59375 0.25 0  0.625 0.25 0  0.65625 0.25 0  0.6875 0.25 0  0.71875 0.25 0  0.75 0.25 0  0.78125 0.25 0  0.8125 0.25 0  0.84375 0.25 0  0.875 0.25 0  0.90625 0.25 0  0.9375 0.25 0  0.96875 0.25 0  1 0.25 0  0 0.28125 0  0.03125 0.28125 0  0.0625 0.28125 0  0.09375 0.28125 0  0.125 0.28125 0  0.15625 0.28125 0  0.1875 0.28125 0  0.21875 0.28125 0  0.25 0.28125 0  0.28125 0.28125 0  0.3125 0.28125 0  0.34375 0.28125 0  0.375 0.28125 0  0.40625 0.28125 0  0.4375 0.28125 0  0.46875 0.28125 0  0.5 0.28125 0  0.53125 0.28125 0  0.5625 0.28125 0  0.59375 0.28125 0  0.625 0.28125 0  0.65625 0.28125 0  0.6875 0.28125 0  0.71875 0.28125 0  0.75 0.28125 0  0.78125 0.28125 0  0.8125 0.28125 0  0.84375 0.28125 0  0.875 0.28125 0  0.90625 0.28125 0  0.9375 0.28125 0  0.96875 0.28125 0  1 0.28125 0  0 0.3125 0  0.03125 0.3125 0  0.0625 0.3125 0  0.09375 0.3125 0  0.125 0.3125 0  0.15625 0.3125 0  0.1875 0.3125 0  0.21875 0.3125 0  0.25 0.3125 0  0.28125 0.3125 0  0.3125 0.3125 0  0.34375 0.3125 0  0.375 0.3125 0  0.40625 0.3125 0  0.4375 0.3125 0  0.46875 0.3125 0  0.5 0.3125 0  0.53125 0.3125 0  0.5625 0.3125 0  0.59375 0.3125 0  0.625 0.3125 0  0.65625 0.3125 0  0.6875 0.3125 0  0.71875 0.3125 0  0.75 0.3125 0  0.78125 0.3125 0  0.8125 0.3125 0  0.84375 0.3125 0  0.875 0.3125 0  0.90625 0.3125 0  0.9375 0.3125 0  0.96875 0.3125 0  1 0.3125 0  0 0.34375 0  0.03125 0.34375 0  0.0625 0.34375 0  0.09375 0.34375 0  0.125 0.34375 0  0.15625 0.34375 0  0.1875 0.34375 0  0.21875 0.34375 0  0.25 0.34375 0  0.28125 0.34375 0  0.3125 0.34375 0  0.34375 0.34375 0  0.375 0.34375 0  0.40625 0.34375 0  0.4375 0.34375 0  0.46875 0.34375 0  0.5 0.34375 0  0.53125 0.34375 0  0.5625 0.34375 0  0.59375 0.34375 0  0.625 0.34375 0  0.65625 0.34375 0  0.6875 0.34375 0  0.71875 0.34375 0  0.75 0.34375 0  0.78125 0.34375 0  0.8125 0.34375 0  0.84375 0.34375 0  0.875 0.34375 0  0.90625 0.34375 0  0.9375 0.34375 0  0.96875 0.34375 0  1 0.34375 0  0 0.375 0  0.03125 0.375 0  0.0625 0.375 0  0.09375 0.375 0  0.125 0.375 0  0.15625 0.375 0  0.1875 0.375 0  0.21875 0.375 0  0.25 0.375 0  0.28125 0.375 0  0.3125 0.375 0  0.34375 0.375 0  0.375 0.375 0  0.40625 0.375 0  0.4375 0.375 0  0.46875 0.375 0  0.5 0.375 0  0.53125 0.375 0  0.5625 0.375 0  0.59375 0.375 0  0.625 0.375 0  0.65625 0.375 0  0.6875 0.375 0  0.71875 0.375 0  0.75 0.375 0  0.78125 0.375 0  0.8125 0.375 0  0.84375 0.375 0  0.875 0.375 0  0.90625 0.375 0  0.9375 0.375 0  0.96875 0.375 0  1 0.375 0  0 0.40625 0  0.03125 0.40625 0  0.0625 0.40625 0  0.09375 0.40625 0  0.125 0.40625 0  0.15625 0.40625 0  0.1875 0.40625 0  0.21875 0.40625 0  0.25 0.40625 0  0.28125 0.40625 0  0.3125 0.40625 0  0.34375 0.40625 0  0.375 0.40625 0  0.40625 0.40625 0  0.4375 0.40625 0  0.46875 0.40625 0  0.5 0.40625 0  0.53125 0.40625 0  0.5625 0.40625 0  0.59375 0.40625 0  0.625 0.40625 0  0.65625 0.40625 0  0.6875 0.40625 0  0.71875 0.40625 0  0.75 0.40625 0  0.78125 0.40625 0  0.8125 0.40625 0  0.84375 0.40625 0  0.875 0.40625 0  0.90625 0.40625 0  0.9375 0.40625 0  0.96875 0.40625 0  1 0.40625 0  0 0.4375 0  0.03125 0.4375 0  0.0625 0.4375 0  0.09375 0.4375 0  0.125 0.4375 0  0.15625 0.4375 0  0.1875 0.4375 0  0.21875 0.4375 0  0.25 0.4375 0  0.28125 0.4375 0  0.3125 0.4375 0  0.34375 0.4375 0  0.375 0.4375 0  0.40625 0.4375 0  0.4375 0.4375 0  0.46875 0.4375 0  0.5 0.4375 0  0.53125 0.4375 0  0.5625 0.4375 0  0.59375 0.4375 0  0.625 0.4375 0  0.65625 0.4375 0  0.6875 0.4375 0  0.71875 0.4375 0  0.75 0.4375 0  0.78125 0.4375 0  0.8125 0.4375 0  0.84375 0.4375 0  0.875 0.4375 0  0.90625 0.4375 0  0.9375 0.4375 0  0.96875 0.4375 0  1 0.4375 0  0 0.46875 0  0.03125 0.46875 0  0.0625 0.46875 0  0.09375 0.46875 0  0.125 0.46875 0  0.15625 0.46875 0  0.1875 0.46875 0  0.21875 0.46875 0  0.25 0.46875 0  0.28125 0.46875 0  0.3125 0.46875 0  0.34375 0.46875 0  0.375 0.46875 0  0.40625 0.46875 0  0.4375 0.46875 0  0.46875 0.46875 0  0.5 0.46875 0  0.53125 0.46875 0  0.5625 0.46875 0  0.59375 0.46875 0  0.625 0.46875 0  0.65625 0.46875 0  0.6875 0.46875 0  0.71875 0.46875 0  0.75 0.46875 0  0.78125 0.46875 0  0.8125 0.46875 0  0.84375 0.46875 0  0.875 0.46875 0  0.90625 0.46875 0  0.9375 0.46875 0  0.96875 0.46875 0  1 0.46875 0  0 0.5 0  0.03125 0.5 0  0.0625 0.5 0  0.09375 0.5 0  0.125 0.5 0  0.15625 0.5 0  0.1875 0.5 0  0.21875 0.5 0  0.25 0.5 0  0.28125 0.5 0  0.3125 0.5 0  0.34375 0.5 0  0.375 0.5 0  0.40625 0.5 0  0.4375 0.5 0  0.46875 0.5 0  0.5 0.5 0  0.53125 0.5 0  0.5625 0.5 0  0.59375 0.5 0  0.625 0.5 0  0.65625 0.5 0  0.6875 0.5 0  0.71875 0.5 0  0.75 0.5 0  0.78125 0.5 0  0.8125 0.5 0  0.84375 0.5 0  0.875 0.5 0  0.90625 0.5 0  0.9375 0.5 0  0.96875 0.5 0  1 0.5 0  0 0.53125 0  0.03125 0.53125 0  0.0625 0.53125 0  0.09375 0.53125 0  0.125 0.53125 0  0.15625 0.53125 0  0.1875 0.53125 0  0.21875 0.53125 0  0.25 0.53125 0  0.28125 0.53125 0  0.3125 0.53125 0  0.34375 0.53125 0  0.375 0.53125 0  0.40625 0.53125 0  0.4375 0.53125 0  0.46875 0.53125 0  0.5 0.53125 0  0.53125 0.53125 0  0.5625 0.53125 0  0.59375 0.53125 0  0.625 0.53125 0  0.65625 0.53125 0  0.6875 0.53125 0  0.71875 0.53125 0  0.75 0.53125 0  0.78125 0.531
[...]
<PointData  Scalars="phi"> 
<DataArray  type="Float64"  Name="phi"  format="ascii">0.0000000000000000e+00  0.0000000000000000e+00  0.0000000000000000e+00  0.0000000000000000e+00  0.0000000000000000e+00  0.0000000000000000e+00  0.0000000000000000e+00  0.0000000000000000e+00  0.0000000000000000e+00  0.0000000000000000e+00  0.0000000000000000e+00  0.0000000000000000e+00  0.0000000000000000e+00  0.0000000000000000e+00  0.0000000000000000e+00  0.0000000000000000e+00  0.0000000000000000e+00  0.0000000000000000e+00  0.0000000000000000e+00  0.0000000000000000e+00  0.0000000000000000e+00  0.0000000000000000e+00  0.0000000000000000e+00  0.0000000000000000e+00  0.0000000000000000e+00  0.0000000000000000e+00  0.0000000000000000e+00  0.0000000000000000e+00  0.0000000000000000e+00  0.0000000000000000e+00  0.0000000000000000e+00  0.0000000000000000e+00  0.0000000000000000e+00  0.0000000000000000e+00  -1.0680607311979827e-04  -2.1095598968504334e-04  -3.0997472449229794e-04  -4.0156406050772126e-04  -4.8366085035027431e-04  -5.5450645885358237e-04  -6.1270227014860088e-04  -6.5725118346369625e-04  -6.8758419554458756e-04  -7.0357134686688358e-04  -7.0551678136908434e-04  -6.9413823015487082e-04  -6.7053180341502009e-04  -6.3612352297465994e-04  -5.9260952367794716e-04  -5.4188727419267097e-04  -4.8598049977084218e-04  -4.2696071802812485e-04  -3.6686841507579433e-04  -3.0763688892859091e-04  -2.5102167011946614e-04  -1.9853820047424094e-04  -1.5141011894191170e-04  -1.1053008110955814e-04  -7.6434542896026386e-05  -4.9293388116086657e-05  -2.8914695503578403e-05  -1.4764346223545472e-05  -5.9995917407350266e-06  -1.5151594177056280e-06  -9.7167858971024577e-18  0.0000000000000000e+00  0.0000000000000000e+00  -2.1095598968504290e-04  -4.1679047046180585e-04  -6.1247310553614719e-04  -7.9342436435535517e-04  -9.5554315588596798e-04  -1.0953373344347391e-03  -1.2100319725936186e-03  -1.2976512334929374e-03  -1.3570710001141843e-03  -1.3880405254099745e-03  -1.3911725112250410e-03  -1.3679022007881524e-03  -1.3204172318775514e-03  -1.2515610965315319e-03  -1.1647140434880626e-03  -1.0636561020711298e-03  -9.5241756811771129e-04  -8.3512274820267537e-04  -7.1583299042471112e-04  -5.9839502960447463e-04  -4.8630044212900458e-04  -3.8256155000540999e-04  -2.8960845268605402e-04  -2.0921102450542238e-04  -1.4242872763266007e-04  -8.9589993457189532e-05  -5.0301761664719839e-05  -2.3488580938522791e-05  -7.4595142261917310e-06  -3.7659999192592030e-17  1.5151594176673580e-06  0.0000000000000000e+00  0.0000000000000000e+00  -3.0997472449229599e-04  -6.1247310553614470e-04  -8.9997482264134816e-04  -1.1656895651527052e-03  -1.4035417802055561e-03  -1.6083628107126915e-03  -1.7760506138225448e-03  -1.9036907851142468e-03  -1.9896343901743153e-03  -2.0335298631249882e-03  -2.0363080150680064e-03  -2.0001209865788015e-03  -1.9282377264621679e-03  -1.8249002225795264e-03  -1.6951461883803927e-03  -1.5446051647285562e-03  -1.3792759828409611e-03  -1.2052942130940704e-03  -1.0286985703458285e-03  -8.5520524632329059e-04  -6.8999879388453801e-04  -5.3754751020058022e-04  -4.0145028248175947e-04  -2.8432060887588966e-04  -1.8771203691983829e-04  -1.1208762913648255e-04  -5.6834332913697998e-05  -2.0321366263277212e-05  -7.9928980162560158e-17  7.4595142260819742e-06  5.9995917406792351e-06  0.0000000000000000e+00  0.0000000000000000e+00  -4.0156406050771638e-04  -7.9342436435534758e-04  -1.1656895651526989e-03  -1.5094645328197159e-03  -1.8167957890642063e-03  -2.0809239033738507e-03  -2.2964931047182806e-03  -2.4597100504379146e-03  -2.5684458227841897e-03  -2.6222774994096023e-03  -2.6224680014396576e-03  -2.5718852962079148e-03  -2.4748643451811990e-03  -2.3370173598866030e-03  -2.1649998801544241e-03  -1.9662418467378991e-03  -1.7486541418443990e-03  -1.5203219671129935e-03  -1.2891968853077855e-03  -1.0627993524659953e-03  -8.4794311192690447e-04  -6.5049192852835761e-04  -4.7515784502982539e-04  -3.2534849368157136e-04  -2.0306905747877549e-04  -1.0888232270898754e-04  -4.1927979716765993e-05  -1.3047424516323258e-16  2.0321366263072853e-05  2.3488580938382384e-05  1.4764346223474066e-05  0.0000000000000000e+00  0.0000000000000000e+00  -4.8366085035026483e-04  -9.5554315588595225e-04  -1.4035417802055383e-03  -1.8167957890641928e-03  -2.1856005230465156e-03  -2.5017180514323306e-03  -2.7586346270758338e-03  -2.9517554702895728e-03  -3.0785296758906447e-03  -3.1385007707180278e-03  -3.1332813274392115e-03  -3.0664529571204358e-03  -2.9433958519718205e-03  -2.7710547263981641e-03  -2.5576504094779809e-03  -2.3123483850185961e-03  -2.0448971793559016e-03  -1.7652506015132402e-03  -1.4831884036068678e-03  -1.2079499305538296e-03  -9.4789476778612354e-04  -7.1020329590126938e-04  -5.0062846474883071e-04  -3.2330806814579030e-04  -1.8064441263512834e-04  -7.3255621438678459e-05  -1.8169647234572683e-16  4.1927979716457762e-05  5.6834332913456288e-05  5.0301761664553604e-05  2.8914695503493828e-05  0.0000000000000000e+00  0.0000000000000000e+00  -5.5450645885356655e-04  -1.0953373344347107e-03  -1.6083628107126568e-03  -2.0809239033738169e-03  -2.5017180514323068e-03  -2.8611645312919924e-03  -3.1517070950537831e-03  -3.3680426356426599e-03  -3.5072674994368149e-03  -3.5689362315395579e-03  -3.5550309006413491e-03  -3.4698425728568365e-03  -3.3197698546707220e-03  -3.1130425768085878e-03  -2.8593815241044051e-03  -2.5696075239516683e-03  -2.2552150964708136e-03  -1.9279271715116500e-03  -1.5992480419021510e-03  -1.2800317242147685e-03  -9.8008223838351167e-04  -7.0780102176775609e-04  -4.6989481208526259e-04  -2.7115493981110569e-04  -1.1431615655339936e-04  -2.2514681608726283e-16  7.3255621438273307e-05  1.0888232270864300e-04  1.1208762913621190e-04  8.9589993457003185e-05  4.9293388115991782e-05  0.0000000000000000e+00  0.0000000000000000e+00  -6.1270227014857627e-04  -1.2100319725935728e-03  -1.7760506138224858e-03  -2.2964931047182177e-03  -2.7586346270757765e-03  -3.1517070950537467e-03  -3.4672437098518662e-03  -3.6993389500389667e-03  -3.8448145224789926e-03  -3.9032853784807552e-03  -3.8771237142882962e-03  -3.7713227677005634e-03  -3.5932660397075392e-03  -3.3524111637357476e-03  -3.0599008775200266e-03  -2.7281163002630788e-03  -2.3701898758833146e-03  -1.9994968297157006e-03  -1.6291447447176323e-03  -1.2714808656617014e-03  -9.3763598660071500e-04  -6.3712229768343265e-04  -3.7750041963874824e-04  -1.6412812100959122e-04  -2.5238815416058591e-16  1.1431615655292122e-04  1.8064441263469626e-04  2.0306905747840691e-04  1.8771203691954810e-04  1.4242872763245993e-04  7.6434542895924390e-05  0.0000000000000000e+00  0.0000000000000000e+00  -6.5725118346366047e-04  -1.2976512334928699e-03  -1.9036907851141557e-03  -2.4597100504378110e-03  -2.9517554702894705e-03  -3.3680426356425706e-03  -3.6993389500389138e-03  -3.9392519952122767e-03  -4.0844131043085612e-03  -4.1345496220895617e-03  -4.0924435679777250e-03  -3.9637787445697880e-03  -3.7568825803065897e-03  -3.4823729949168976e-03  -3.1527241755685206e-03  -2.7817682120604534e-03  -2.3841519436798458e-03  -1.9747700267287015e-03  -1.5681960772171849e-03  -1.1781337460280532e-03  -8.1690874456330834e-04  -4.9502119041013308e-04  -2.2077524888569085e-04  -2.5583070185446795e-16  1.6412812100908043e-04  2.7115493981061807e-04  3.2330806814534718e-04  3.2534849368119178e-04  2.8432060887558988e-04  2.0921102450521519e-04  1.1053008110945245e-04  0.0000000000000000e+00  0.0000000000000000e+00  -6.8758419554453855e-04  -1.3570710001140904e-03  -1.9896343901741869e-03  -2.5684458227840379e-03  -3.0785296758904846e-03  -3.5072674994366649e-03  -3.8448145224788733e-03  -4.0844131043084927e-03  -4.2225916979658574e-03  -4.2592422365492696e-03  -4.1975734762913766e-03  -4.0439425523019958e-03  -3.8075716378176412e-03  -3.5001609653055529e-03  -3.1354133988318682e-03  -2.7284890902448153e-03  -2.2954113785334401e-03  -1.8524469015945601e-03  -1.4154838135206789e-03  -9.9943200348848226e-04  -6.1766829488951161e-04  -2.8154780138997423e-04  -2.2959181155393215e-16  2.2077524888520114e-04  3.7750041963825238e-04  4.6989481208478445e-04  5.0062846474839258e-04  4.7515784502944819e-04  4.0145028248146029e-04  2.8960845268584672e-04  1.5141011894180575e-04  0.0000000000000000e+00  0.0000000000000000e+00  -7.0357134686681983e-04  -1.3880405254098518e-03  -2.0335298631248156e-03  -2.6222774994093955e-03  -3.1385007707178032e-03  -3.5689362315393333e-03  -3.9032853784805531e-03  -4.1345496220894038e-03  -4.2592422365491794e-03  -4.2774696899136773e-03  -4.1928797278922864e-03  -4.0124786584010193e-03  -3.7463252645766579e-03  -3.4071134674273874e-03  -3.0096600842374737e-03  -2.5703176223179146e-03  -2.1063348714544534e-03  -1.6351900040748948e-03  -1.1739218853039181e-03  -7.3848529798881254e-04  -3.4315480088650601e-04  -1.7005156059574686e-16  2.8154780138956934e-04  4.9502119040968759e-04  6.3712229768297219e-04  7.0780102176730550e-04  7.1020329590085250e-04  6.5049192852799571e-04  5.3754751020029194e-04  3.8256155000520947e-04  1.9853820047413821e-04  0.0000000000000000e+00  0.0000000000000000e+00  -7.0551678136900411e-04  -1.3911725112248860e-03  -2.0363080150677870e-03  -2.6224680014393892e-03  -3.1332813274389114e-03  -3.5550309006410377e-03  -3.8771237142879987e-03  -4.0924435679774648e-03  -4.1975734762911797e-03  -4.1928797278921789e-03  -4.0824548292109899e-03  -3.8739219463371187e-03  -3.5781087379978377e-03  -3.2086034473922643e-03  -2.7812105990370887e-03  -2.3133274559987448e-03  -1.8232653863005665e-03  -1.3295423498751371e-03  -8.5017377011943911e-04  -4.0198905679164626e-04  -7.6499351834839859e-17  3.4315480088625345e-04  6.1766829488918266e-04  8.1690874456292757e-04  9.3763598660030875e-04  9.8008223838310575e-04  9.4789476778574233e-04  8.4794311192657010e-04  6.8999879388426989e-04  4.8630044212881718e-04  2.5102167011936991e-04  0.0000000000000000e+00  0.0000000000000000e+00  -6.9413823015477302e-04  -1.3679022007879625e-03  -2.0001209865785309e-03  -2.5718852962075783e-03  -3.0664529571200554e-03  -3.4698425728564315e-03  -3.7713227677001609e-03  -3.9637787445694142e-03  -4.0439425523016784e-03  -4.0124786584007869e-03  -3.8739219463369916e-03  -3.6364708905524930e-03  -3.3116441904202268e-03  -2.9138143533863512e-03  -2.4596364065668213e-03  -1.9673939044895245e-03  -1.4562875349305397e-03  -9.4569378436446059e-04  -4.5442222654082783e-04  4.9057327650881324e-17  4.0198905679161292e-04  7.3848529798866758e-04  9.9943200348824894e-04  1.1781337460277555e-03  1.2714808656613670e-03  1.2800317242144231e-03  1.2079499305534978e-03  1.0627993524657000e-03  8.5520524632305098e-04  5.9839502960430614e-04  3.0763688892850412e-04  0.0000000000000000e+00  0.0000000000000000e+00  -6.7053180341490333e-04  -1.3204172318773246e-03  -1.9282377264618418e-03  -2.4748643451807909e-03  -2.9433958519713508e-03  -3.3197698546702150e-03  -3.5932660397070232e-03  -3.7568825803060918e-03  -3.8075716378171915e-03  -3.7463252645762862e-03  -3.5781087379975693e-03  -3.3116441904200845e-03  -2.9590531234541715e-03  -2.5353717889427196e-03  -2.0579582735080560e-03  -1.5458142530600169e-03  -1.0188476286421533e-03  -4.9710449076354759e-04  2.0169872598029249e-16  4.5442222654107307e-04  8.5017377011954113e-04  1.1739218853038967e-03  1.4154838135205566e-03  1.5681960772169854e-03  1.6291447447173836e-03  1.5992480419018795e-03  1.4831884036065970e-03  1.2891968853075387e-03  1.0286985703456251e-03  7.1583299042456692e-04  3.6686841507571963e-04  0.0000000000000000e+00  0.0000000000000000e+00  -6.3612352297452430e-04  -1.2515610965312669e-03  -1.8249002225791437e-03  -2.3370173598861212e-03  -2.7710547263976068e-03  -3.1130425768079776e-03  -3.3524111637351149e-03  -3.4823729949162727e-03  -3.5001609653049666e-03  -3.4071134674268709e-03  -3.2086034473918458e-03  -2.9138143533860546e-03  -2.5353717889425634e-03  -2.0888452094074976e-03  -1.5921389742019460e-03  -1.0647962982944827e-03  -5.2724297091161991e-04  3.7259351646980363e-16  4.9710449076411809e-04  9.4569378436486359e-04  1.3295423498753864e-03  1.6351900040750089e-03  1.8524469015945603e-03  1.9747700267286131e-03  1.9994968297155505e-03  1.9279271715114622e-03  1.7652506015130398e-03  1.5203219671128033e-03  1.2052942130939097e-03  8.3512274820255969e-04  4.2696071802806446e-04  0.0000000000000000e+00  0.0000000000000000e+00  -5.9260952367779277e-04  -1.1647140434877603e-03  -1.6951461883799549e-03  -2.1649998801538690e-03  -2.5576504094773347e-03  -2.8593815241036917e-03  -3.0599008775192755e-03  -3.1527241755677660e-03  -3.1354133988311435e-03  -3.0096600842368084e-03  -2.7812105990365145e-03  -2.4596364065663629e-03  -2.0579582735077350e-03  -1.5921389742017799e-03  -1.0804640933835242e-03  -5.4283482036094504e-04  5.5249070656126884e-16  5.2724297091254224e-04  1.0188476286428941e-03  1.4562875349311047e-03  1.8232653863009686e-03  2.1063348714547101e-03  2.2954113785335719e-03  2.3841519436798766e-03  2.3701898758832687e-03  2.2552150964707160e-03  2.0448971793557776e-03  1.7486541418442706e-03  1.3792759828408475e-03  9.5241756811762738e-04  4.8598049977079729e-04  0.0000000000000000e+00  0.0000000000000000e+00  -5.4188727419249923e-04  -1.0636561020707929e-03  -1.5446051647280666e-03  -1.9662418467372763e-03  -2.3123483850178645e-03  -2.5696075239508560e-03  -2.7281163002622162e-03  -2.7817682120595748e-03  -2.7284890902439540e-03  -2.5703176223171036e-03  -2.3133274559980145e-03  -1.9673939044889035e-03  -1.5458142530595286e-03  -1.0647962982941466e-03  -5.4283482036077395e-04  7.3018395534920411e-16  5.4283482036222700e-04  1.0647962982955779e-03  1.5458142530609248e-03  1.9673939044902509e-03  2.3133274559993004e-03  2.5703176223183162e-03  2.7284890902450811e-03  2.7817682120606065e-03  2.7281163002631425e-03  2.5696075239516674e-03  2.3123483850185532e-03  1.9662418467378357e-03  1.5446051647284914e-03  1.0636561020710786e-03  5.4188727419264299e-04  0.0000000000000000e+00  0.0000000000000000e+00  -4.8598049977065472e-04  -9.5241756811734321e-04  -1.3792759828404251e-03  -1.7486541418437142e-03  -2.0448971793550932e-03  -2.2552150964699098e-03  -2.3701898758823484e-03  -2.3841519436788505e-03  -2.2954113785324500e-03  -2.1063348714535032e-03  -1.8232653862996885e-03  -1.4562875349297625e-03  -1.0188476286415028e-03  -5.2724297091111694e-04  8.9381219897752821e-16  5.4283482036239831e-04  1.0804640933849696e-03  1.5921389742032035e-03  2.0579582735091228e-03  2.4596364065677025e-03  2.7812105990377921e-03  3.0096600842380158e-03  3.1354133988322659e-03  3.1527241755687939e-03  3.0599008775201975e-03  2.8593815241045014e-03  2.5576504094780208e-03  2.1649998801544267e-03  1.6951461883803782e-03  1.1647140434880450e-03  5.9260952367793599e-04  0.0000000000000000e+00  0.0000000000000000e+00  -4.2696071802792373e-04  -8.3512274820227996e-04  -1.2052942130934940e-03  -1.5203219671122556e-03  -1.7652506015123663e-03  -1.9279271715106679e-03  -1.9994968297146433e-03  -1.9747700267276026e-03  -1.8524469015934553e-03  -1.6351900040738195e-03  -1.3295423498741242e-03  -9.4569378436354021e-04  -4.9710449076274658e-04  1.0328834394548978e-15  5.2724297091304563e-04  1.0647962982959149e-03  1.5921389742033700e-03  2.0888452094089001e-03  2.5353717889439304e-03  2.9138143533873721e-03  3.2086034473931047e-03  3.4071134674280600e-03  3.5001609653060746e-03  3.4823729949172866e-03  3.3524111637360243e-03  3.1130425768087747e-03  2.7710547263982816e-03  2.3370173598866702e-03  1.8249002225795606e-03  1.2515610965315471e-03  6.3612352297466536e-04  0.0000000000000000e+00  0.0000000000000000e+00  -3.6686841507558242e-04  -7.1583299042429392e-04  -1.0286985703452196e-03  -1.2891968853070042e-03  -1.4831884036059402e-03  -1.5992480419011041e-03  -1.6291447447164993e-03  -1.5681960772159997e-03  -1.4154838135194776e-03  -1.1739218853027364e-03  -8.5017377011830893e-04  -4.5442222653978130e-04  1.1371711210275317e-15  4.9710449076491997e-04  1.0188476286435446e-03  1.5458142530614136e-03  2.0579582735094446e-03  2.5353717889440874e-03  2.9590531234555046e-03  3.3116441904213700e-03  3.5781087379987983e-03  3.7463252645774485e-03  3.8075716378182752e-03  3.7568825803070824e-03  3.5932660397079105e-03  3.3197698546709917e-03  2.9433958519720091e-03  2.4748643451813260e-03  1.9282377264622477e-03  1.3204172318775978e-03  6.7053180341504091e-04  0.0000000000000000e+00  0.0000000000000000e+00  -3.0763688892837174e-04  -5.9839502960404290e-04  -8.5520524632265926e-04  -1.0627993524651837e-03  -1.2079499305528622e-03  -1.2800317242136741e-03  -1.2714808656605120e-03  -1.1781337460268027e-03  -9.9943200348720637e-04  -7.3848529798754587e-04  -4.0198905679042230e-04  1.1988261255201742e-15  4.5442222654212090e-04  9.4569378436578548e-04  1.4562875349318828e-03  1.9673939044908724e-03  2.4596364065681618e-03  2.9138143533876714e-03  3.3116441904215139e-03  3.6364708905537351e-03  3.8739219463381795e-03  4.0124786584019093e-03  4.0439425523027244e-03  3.9637787445703718e-03  3.7713227677010183e-03  3.4698425728571817e-03  3.0664529571206908e-03  2.5718852962080944e-03  2.0001209865789221e-03  1.3679022007882262e-03  6.9413823015490573e-04  0.0000000000000000e+00  0.0000000000000000e+00  -2.5102167011924355e-04  -4.8630044212856586e-04  -6.8999879388389584e-04  -8.4794311192607690e-04  -9.4789476778513486e-04  -9.8008223838238996e-04  -9.3763598659949180e-04  -8.1690874456201673e-04  -6.1766829488818661e-04  -3.4315480088518172e-04  1.2138215883428697e-15  4.0198905679283828e-04  8.5017377012067390e-04  1.3295423498764021e-03  1.8232653863018491e-03  2.3133274560000316e-03  2.7812105990383681e-03  3.2086034473935258e-03  3.5781087379990690e-03  3.8739219463383087e-03  4.0824548292121270e-03  4.1928797278932527e-03  4.1975734762921806e-03  4.0924435679783842e-03  3.8771237142888187e-03  3.5550309006417550e-03  3.1332813274395181e-03  2.6224680014398814e-03  2.0363080150681613e-03  1.3911725112251377e-03  7.0551678136913086e-04  0.0000000000000000e+00  0.0000000000000000e+00  -1.9853820047401903e-04  -3.8256155000497230e-04  -5.3754751019993892e-04  -6.5049192852753037e-04  -7.1020329590027929e-04  -7.0780102176663025e-04  -6.3712229768220121e-04  -4.9502119040882803e-04  -2.8154780138862939e-04  1.1813716459706423e-15  3.4315480088757916e-04  7.3848529798993697e-04  1.1739218853050832e-03  1.6351900040760877e-03  2.1063348714556633e-03  2.5703176223191289e-03  3.0096600842386811e-03  3.4071134674285787e-03  3.7463252645778206e-03  4.0124786584021452e-03  4.1928797278933602e-03  4.2774696899146904e-03  4.2592422365501231e-03  4.1345496220902694e-03  3.9032853784813260e-03  3.5689362315400085e-03  3.1385007707183743e-03  2.6222774994098595e-03  2.0335298631251686e-03  1.3880405254100886e-03  7.0357134686693909e-04  0.0000000000000000e+00  0.0000000000000000e+00  -1.5141011894169491e-04  -2.8960845268562619e-04  -4.0145028248113221e-04  -4.7515784502901549e-04  -5.0062846474785991e-04  -4.6989481208415643e-04  -3.7750041963753529e-04  -2.2077524888440149e-04  1.1040527062068301e-15  2.8154780139091521e-04  6.1766829489051005e-04  9.9943200348952830e-04  1.4154838135217616e-03  1.8524469015956688e-03  2.2954113785345655e-03  2.7284890902459441e-03  3.1354133988329919e-03  3.5001609653066619e-03  3.8075716378187237e-03  4.0439425523030419e-03  4.1975734762923749e-03  4.2592422365502116e-03  4.2225916979667325e-03  4.0844131043092924e-03  3.8448145224795893e-03  3.5072674994372907e-03  3.0785296758910159e-03  2.5684458227844681e-03  1.9896343901745130e-03  1.3570710001143105e-03  6.8758419554464946e-04  0.0000000000000000e+00  0.0000000000000000e+00  -1.1053008110935103e-04  -2.0921102450501344e-04  -2.8432060887528967e-04  -3.2534849368079599e-04  -3.2330806814485962e-04  -2.7115493981004339e-04  -1.6412812100842400e-04  9.8772053331405999e-16  2.2077524888649121e-04  4.9502119041099427e-04  8.1690874456422189e-04  1.1781337460290103e-03  1.5681960772181765e-03  1.9747700267297168e-03  2.3841519436808753e-03  2.7817682120614869e-03  3.1527241755695485e-03  3.4823729949179116e-03