<?xml version="1.0"?>
<VTKFile type="UnstructuredGrid"  version="0.1"  >
<UnstructuredGrid>
<Piece  NumberOfPoints="1089" NumberOfCells="2048">
<Points>
<DataArray  type="Float64"  NumberOfComponents="3"  format="ascii">0 0 0  0.03125 0 0  0.0625 0 0  0.09375 0 0  0.125 0 0  0.15625 0 0  0.1875 0 0  0.21875 0 0  0.25 0 0  0.28125 0 0  0.3125 0 0  0.34375 0 0  0.375 0 0  0.40625 0 0  0.4375 0 0  0.46875 0 0  0.5 0 0  0.53125 0 0  0.5625 0 0  0.59375 0 0  0.625 0 0  0.65625 0 0  0.6875 0 0  0.71875 0 0  0.75 0 0  0.78125 0 0  0.8125 0 0  0.84375 0 0  0.875 0 0  0.90625 0 0  0.9375 0 0  0.96875 0 0  1 0 0  0 0.03125 0  0.03125 0.03125 0  0.0625 0.03125 0  0.09375 0.03125 0  0.125 0.03125 0  0.15625 0.03125 0  0.1875 0.03125 0  0.21875 0.03125 0  0.25 0.03125 0  0.28125 0.03125 0  0.3125 0.03125 0  0.34375 0.03125 0  0.375 0.03125 0  0.40625 0.03125 0  0.4375 0.03125 0  0.46875 0.03125 0  0.5 0.03125 0  0.53125 0.03125 0  0.5625 0.03125 0  0.59375 0.03125 0  0.625 0.03125 0  0.65625 0.03125 0  0.6875 0.03125 0  0.71875 0.03125 0  0.75 0.03125 0  0.78125 0.03125 0  0.8125 0.03125 0  0.84375 0.03125 0  0.875 0.03125 0  0.90625 0.03125 0  0.9375 0.03125 0  0.96875 0.03125 0  1 0.03125 0  0 0.0625 0  0.03125 0.0625 0  0.0625 0.0625 0  0.09375 0.0625 0  0.125 0.0625 0  0.15625 0.0625 0  0.1875 0.0625 0  0.21875 0.0625 0  0.25 0.0625 0  0.28125 0.0625 0  0.3125 0.0625 0  0.34375 0.0625 0  0.375 0.0625 0  0.40625 0.0625 0  0.4375 0.0625 0  0.46875 0.0625 0  0.5 0.0625 0  0.53125 0.0625 0  0.5625 0.0625 0  0.59375 0.0625 0  0.625 0.0625 0  0.65625 0.0625 0  0.6875 0.0625 0  0.71875 0.0625 0  0.75 0.0625 0  0.78125 0.0625 0  0.8125 0.0625 0  0.84375 0.0625 0  0.875 0.0625 0  0.90625 0.0625 0  0.9375 0.0625 0  0.96875 0.0625 0  1 0.0625 0  0 0.09375 0  0.03125 0.09375 0  0.0625 0.09375 0  0.09375 0.09375 0  0.125 0.09375 0  0.15625 0.09375 0  0.1875 0.09375 0  0.21875 0.09375 0  0.25 0.09375 0  0.28125 0.09375 0  0.3125 0.09375 0  0.34375 0.09375 0  0.375 0.09375 0  0.40625 0.09375 0  0.4375 0.09375 0  0.46875 0.09375 0  0.5 0.09375 0  0.53125 0.09375 0  0.5625 0.09375 0  0.59375 0.09375 0  0.625 0.09375 0  0.65625 0.09375 0  0.6875 0.09375 0  0.71875 0.09375 0  0.75 0.09375 0  0.78125 0.09375 0  0.8125 0.09375 0  0.84375 0.09375 0  0.875 0.09375 0  0.90625 0.09375 0  0.9375 0.09375 0  0.96875 0.09375 0  1 0.09375 0  0 0.125 0  0.03125 0.125 0  0.0625 0.125 0  0.09375 0.125 0  0.125 0.125 0  0.15625 0.125 0  0.1875 0.125 0  0.21875 0.125 0  0.25 0.125 0  0.28125 0.125 0  0.3125 0.125 0  0.34375 0.125 0  0.375 0.125 0  0.40625 0.125 0  0.4375 0.125 0  0.46875 0.125 0  0.5 0.125 0  0.53125 0.125 0  0.5625 0.125 0  0.59375 0.125 0  0.625 0.125 0  0.65625 0.125 0  0.6875 0.125 0  0.71875 0.125 0  0.75 0.125 0  0.78125 0.125 0  0.8125 0.125 0  0.84375 0.125 0  0.875 0.125 0  0.90625 0.125 0  0.9375 0.125 0  0.96875 0.125 0  1 0.125 0  0 0.15625 0  0.03125 0.15625 0  0.0625 0.15625 0  0.09375 0.15625 0  0.125 0.15625 0  0.15625 0.15625 0  0.1875 0.15625 0  0.21875 0.15625 0  0.25 0.15625 0  0.28125 0.15625 0  0.3125 0.15625 0  0.34375 0.15625 0  0.375 0.15625 0  0.40625 0.15625 0  0.4375 0.15625 0  0.46875 0.15625 0  0.5 0.15625 0  0.53125 0.15625 0  0.5625 0.15625 0  0.59375 0.15625 0  0.625 0.15625 0  0.65625 0.15625 0  0.6875 0.15625 0  0.71875 0.15625 0  0.75 0.15625 0  0.78125 0.15625 0  0.8125 0.15625 0  0.84375 0.15625 0  0.875 0.15625 0  0.90625 0.15625 0  0.9375 0.15625 0  0.96875 0.15625 0  1 0.15625 0  0 0.1875 0  0.03125 0.1875 0  0.0625 0.1875 0  0.09375 0.1875 0  0.125 0.1875 0  0.15625 0.1875 0  0.1875 0.1875 0  0.21875 0.1875 0  0.25 0.1875 0  0.28125 0.1875 0  0.3125 0.1875 0  0.34375 0.1875 0  0.375 0.1875 0  0.40625 0.1875 0  0.4375 0.1875 0  0.46875 0.1875 0  0.5 0.1875 0  0.53125 0.1875 0  0.5625 0.1875 0  0.59375 0.1875 0  0.625 0.1875 0  0.65625 0.1875 0  0.6875 0.1875 0  0.71875 0.1875 0  0.75 0.1875 0  0.78125 0.1875 0  0.8125 0.1875 0  0.84375 0.1875 0  0.875 0.1875 0  0.90625 0.1875 0  0.9375 0.1875 0  0.96875 0.1875 0  1 0.1875 0  0 0.21875 0  0.03125 0.21875 0  0.0625 0.21875 0  0.09375 0.21875 0  0.125 0.21875 0  0.15625 0.21875 0  0.1875 0.21875 0  0.21875 0.21875 0  0.25 0.21875 0  0.28125 0.21875 0  0.3125 0.21875 0  0.34375 0.21875 0  0.375 0.21875 0  0.40625 0.21875 0  0.4375 0.21875 0  0.46875 0.21875 0  0.5 0.21875 0  0.53125 0.21875 0  0.5625 0.21875 0  0.59375 0.21875 0  0.625 0.21875 0  0.65625 0.21875 0  0.6875 0.21875 0  0.71875 0.21875 0  0.75 0.21875 0  0.78125 0.21875 0  0.8125 0.21875 0  0.84375 0.21875 0  0.875 0.21875 0  0.90625 0.21875 0  0.9375 0.21875 0  0.96875 0.21875 0  1 0.21875 0  0 0.25 0  0.03125 0.25 0  0.0625 0.25 0  0.09375 0.25 0  0.125 0.25 0  0.15625 0.25 0  0.1875 0.25 0  0.21875 0.25 0  0.25 0.25 0  0.28125 0.25 0  0.3125 0.25 0  0.34375 0.25 0  0.375 0.25 0  0.40625 0.25 0  0.4375 0.25 0  0.46875 0.25 0  0.5 0.25 0  0.53125 0.25 0  0.5625 0.25 0  0.59375 0.25 0  0.625 0.25 0  0.65625 0.25 0  0.6875 0.25 0  0.71875 0.25 0  0.75 0.25 0  0.78125 0.25 0  0.8125 0.25 0  0.84375 0.25 0  0.875 0.25 0  0.90625 0.25 0  0.9375 0.25 0  0.96875 0.25 0  1 0.25 0  0 0.28125 0  0.03125 0.28125 0  0.0625 0.28125 0  0.09375 0.28125 0  0.125 0.28125 0  0.15625 0.28125 0  0.1875 0.28125 0  0.21875 0.28125 0  0.25 0.28125 0  0.28125 0.28125 0  0.3125 0.28125 0  0.34375 0.28125 0  0.375 0.28125 0  0.40625 0.28125 0  0.4375 0.28125 0  0.46875 0.28125 0  0.5 0.28125 0  0.53125 0.28125 0  0.5625 0.28125 0  0.59375 0.28125 0  0.625 0.28125 0  0.65625 0.28125 0  0.6875 0.28125 0  0.71875 0.28125 0  0.75 0.28125 0  0.78125 0.28125 0  0.8125 0.28125 0  0.84375 0.28125 0  0.875 0.28125 0  0.90625 0.28125 0  0.9375 0.28125 0  0.96875 0.28125 0  1 0.28125 0  0 0.3125 0  0.03125 0.3125 0  0.0625 0.3125 0  0.09375 0.3125 0  0.125 0.3125 0  0.15625 0.3125 0  0.1875 0.3125 0  0.21875 0.3125 0  0.25 0.3125 0  0.28125 0.3125 0  0.3125 0.3125 0  0.34375 0.3125 0  0.375 0.3125 0  0.40625 0.3125 0  0.4375 0.3125 0  0.46875 0.3125 0  0.5 0.3125 0  0.53125 0.3125 0  0.5625 0.3125 0  0.59375 0.3125 0  0.625 0.3125 0  0.65625 0.3125 0  0.6875 0.3125 0  0.71875 0.3125 0  0.75 0.3125 0  0.78125 0.3125 0  0.8125 0.3125 0  0.84375 0.3125 0  0.875 0.3125 0  0.90625 0.3125 0  0.9375 0.3125 0  0.96875 0.3125 0  1 0.3125 0  0 0.34375 0  0.03125 0.34375 0  0.0625 0.34375 0  0.09375 0.34375 0  0.125 0.34375 0  0.15625 0.34375 0  0.1875 0.34375 0  0.21875 0.34375 0  0.25 0.34375 0  0.28125 0.34375 0  0.3125 0.34375 0  0.34375 0.34375 0  0.375 0.34375 0  0.40625 0.34375 0  0.4375 0.34375 0  0.46875 0.34375 0  0.5 0.34375 0  0.53125 0.34375 0  0.5625 0.34375 0  0.59375 0.34375 0  0.625 0.34375 0  0.65625 0.34375 0  0.6875 0.34375 0  0.71875 0.34375 0  0.75 0.34375 0  0.78125 0.34375 0  0.8125 0.34375 0  0.84375 0.34375 0  0.875 0.34375 0  0.90625 0.34375 0  0.9375 0.34375 0  0.96875 0.34375 0  1 0.34375 0  0 0.375 0  0.03125 0.375 0  0.0625 0.375 0  0.09375 0.375 0  0.125 0.375 0  0.15625 0.375 0  0.1875 0.375 0  0.21875 0.375 0  0.25 0.375 0  0.28125 0.375 0  0.3125 0.375 0  0.34375 0.375 0  0.375 0.375 0  0.40625 0.375 0  0.4375 0.375 0  0.46875 0.375 0  0.5 0.375 0  0.53125 0.375 0  0.5625 0.375 0  0.59375 0.375 0  0.625 0.375 0  0.65625 0.375 0  0.6875 0.375 0  0.71875 0.375 0  0.75 0.375 0  0.78125 0.375 0  0.8125 0.375 0  0.84375 0.375 0  0.875 0.375 0  0.90625 0.375 0  0.9375 0.375 0  0.96875 0.375 0  1 0.375 0  0 0.40625 0  0.03125 0.40625 0  0.0625 0.40625 0  0.09375 0.40625 0  0.125 0.40625 0  0.15625 0.40625 0  0.1875 0.40625 0  0.21875 0.40625 0  0.25 0.40625 0  0.28125 0.40625 0  0.3125 0.40625 0  0.34375 0.40625 0  0.375 0.40625 0  0.40625 0.40625 0  0.4375 0.40625 0  0.46875 0.40625 0  0.5 0.40625 0  0.53125 0.40625 0  0.5625 0.40625 0  0.59375 0.40625 0  0.625 0.40625 0  0.65625 0.40625 0  0.6875 0.40625 0  0.71875 0.40625 0  0.75 0.40625 0  0.78125 0.40625 0  0.8125 0.40625 0  0.84375 0.40625 0  0.875 0.40625 0  0.90625 0.40625 0  0.9375 0.40625 0  0.96875 0.40625 0  1 0.40625 0  0 0.4375 0  0.03125 0.4375 0  0.0625 0.4375 0  0.09375 0.4375 0  0.125 0.4375 0  0.15625 0.4375 0  0.1875 0.4375 0  0.21875 0.4375 0  0.25 0.4375 0  0.28125 0.4375 0  0.3125 0.4375 0  0.34375 0.4375 0  0.375 0.4375 0  0.40625 0.4375 0  0.4375 0.4375 0  0.46875 0.4375 0  0.5 0.4375 0  0.53125 0.4375 0  0.5625 0.4375 0  0.59375 0.4375 0  0.625 0.4375 0  0.65625 0.4375 0  0.6875 0.4375 0  0.71875 0.4375 0  0.75 0.4375 0  0.78125 0.4375 0  0.8125 0.4375 0  0.84375 0.4375 0  0.875 0.4375 0  0.90625 0.4375 0  0.9375 0.4375 0  0.96875 0.4375 0  1 0.4375 0  0 0.46875 0  0.03125 0.46875 0  0.0625 0.46875 0  0.09375 0.46875 0  0.125 0.46875 0  0.15625 0.46875 0  0.1875 0.46875 0  0.21875 0.46875 0  0.25 0.46875 0  0.28125 0.46875 0  0.3125 0.46875 0  0.34375 0.46875 0  0.375 0.46875 0  0.40625 0.46875 0  0.4375 0.46875 0  0.46875 0.46875 0  0.5 0.46875 0  0.53125 0.46875 0  0.5625 0.46875 0  0.59375 0.46875 0  0.625 0.46875 0  0.65625 0.46875 0  0.6875 0.46875 0  0.71875 0.46875 0  0.75 0.46875 0  0.78125 0.46875 0  0.8125 0.46875 0  0.84375 0.46875 0  0.875 0.46875 0  0.90625 0.46875 0  0.9375 0.46875 0  0.96875 0.46875 0  1 0.46875 0  0 0.5 0  0.03125 0.5 0  0.0625 0.5 0  0.09375 0.5 0  0.125 0.5 0  0.15625 0.5 0  0.1875 0.5 0  0.21875 0.5 0  0.25 0.5 0  0.28125 0.5 0  0.3125 0.5 0  0.34375 0.5 0  0.375 0.5 0  0.40625 0.5 0  0.4375 0.5 0  0.46875 0.5 0  0.5 0.5 0  0.53125 0.5 0  0.5625 0.5 0  0.59375 0.5 0  0.625 0.5 0  0.65625 0.5 0  0.6875 0.5 0  0.71875 0.5 0  0.75 0.5 0  0.78125 0.5 0  0.8125 0.5 0  0.84375 0.5 0  0.875 0.5 0  0.90625 0.5 0  0.9375 0.5 0  0.96875 0.5 0  1 0.5 0  0 0.53125 0  0.03125 0.53125 0  0.0625 0.53125 0  0.09375 0.53125 0  0.125 0.53125 0  0.15625 0.53125 0  0.1875 0.53125 0  0.21875 0.53125 0  0.25 0.53125 0  0.28125 0.53125 0  0.3125 0.53125 0  0.34375 0.53125 0  0.375 0.53125 0  0.40625 0.53125 0  0.4375 0.53125 0  0.46875 0.53125 0  0.5 0.53125 0  0.53125 0.53125 0  0.5625 0.53125 0  0.59375 0.53125 0  0.625 0.53125 0  0.65625 0.53125 0  0.6875 0.53125 0  0.71875 0.53125 0  0.75 0.53125 0  0.78125 0.531
[...]
<PointData  Scalars="theta"> 
<DataArray  type="Float64"  Name="theta"  format="ascii">3.6878019881771978e-05  5.7427216240576434e-05  3.8487345321475738e-04  8.2719037862456009e-04  1.1131981009866001e-03  8.7905443507877747e-04  1.7909871837043482e-04  6.9830289532229383e-05  1.5691004114351680e-04  0.0000000000000000e+00  3.6763974426321362e-04  1.3646585168525978e-03  1.9949861370595120e-04  1.0167211218976952e-03  1.7863590334816087e-03  7.3049387506708089e-04  1.0673600392188537e-03  4.7863327982753886e-04  0.0000000000000000e+00  1.2634680910662011e-04  4.7082513770944178e-05  2.1598943364535311e-04  1.1980081404773888e-04  5.4570514495130711e-05  1.2662409408554585e-03  9.4509276079523651e-04  5.6781688680897680e-04  3.5559190747516602e-04  1.4483624231843387e-04  2.2109631863502532e-03  2.0059500478456843e-03  1.8302789096013067e-03  1.6890276177123783e-03  1.1536378343971530e-04  3.3965155118528283e-05  5.3844726080741817e-05  3.5947078310683342e-04  7.7553743184293204e-04  1.0717942252373336e-03  8.5827409298746995e-04  1.5446212583587911e-04  6.5330325518261922e-05  1.4968001438758175e-04  1.1205351717766695e-03  3.4470522205566704e-04  1.3017784263392406e-03  1.3584809326497158e-04  9.4820204173438189e-04  1.7441305316592856e-03  6.8341980202162500e-04  1.0423409995445952e-03  4.4704221214392757e-04  2.1053305116761206e-04  1.1845722869628650e-04  4.1847758953171123e-05  2.1012900085524278e-04  1.1172717280573743e-04  4.8503224523072551e-05  1.2365601104211298e-03  8.9721929385459820e-04  5.3033946419945167e-04  3.2750495647563600e-04  9.8625885108271722e-05  2.1586972861622534e-03  1.9515226842598305e-03  1.7622041972096196e-03  0.0000000000000000e+00  9.5199227753618476e-05  3.0830884748614718e-05  5.0352604889516942e-05  3.3630597026001194e-04  7.2508933815030707e-04  1.0272873312848875e-03  8.3815605146929872e-04  1.2746353021996748e-04  6.1221415730164976e-05  1.4209800602003414e-04  1.0932027238935770e-03  3.2234922735970727e-04  1.2358371250801466e-03  6.8958903639099813e-05  8.8458214083905317e-04  1.7032479153299310e-03  6.4043654284406319e-04  1.0174124519094086e-03  4.1823417080760154e-04  2.0539766247688196e-04  1.1075168009673256e-04  3.6091234310257907e-05  2.0385365819792296e-04  1.0423080457580332e-04  4.1831182477995198e-05  1.2069866333825480e-03  8.4782779818547377e-04  4.9616362846869970e-04  2.9728312832560174e-04  5.0064250031368751e-05  2.1080971783610154e-03  1.8932419448215861e-03  8.0784497267105649e-04  6.7295812365441177e-04  7.3322013732073679e-05  2.7403027789676900e-05  4.6821116531071554e-05  3.1515421750147825e-04  6.7670994488393656e-04  9.7995247089549087e-04  8.1811077543784548e-04  9.8171833255987856e-05  5.7427216240576407e-05  1.3427557832927702e-04  1.0673600392188535e-03  2.9974121043044468e-04  1.1678048787505983e-03  0.0000000000000000e+00  8.2619737015818999e-04  1.6625131684377093e-03  6.0074546456709472e-04  9.9183472155377596e-04  3.9192959533648146e-04  2.0054217967547608e-04  1.0336210917850679e-04  2.9782809930179690e-05  1.9707415223144801e-04  9.7351294644404683e-05  3.4519466588115461e-05  1.1766430115863204e-03  7.9776485274143092e-04  4.6495772870714318e-04  2.6423042651328981e-04  0.0000000000000000e+00  2.0576800874537830e-03  4.5420900412517472e-04  7.8592574686790534e-04  6.5654311651713111e-04  4.9928445991768507e-05  2.3633502044266408e-05  4.3122881621596478e-05  2.9562252329080977e-04  6.3110496829579474e-04  9.3031319296965306e-04  7.9754348556841724e-04  6.6849869843255160e-05  5.3844726080741797e-05  1.2634680910662016e-04  1.0423409995445952e-03  2.7606570906800812e-04  1.0988477720606515e-03  2.0709078179703961e-03  7.7295602662301129e-04  1.6207176179162046e-03  5.6326907521259508e-04  9.6492330914594616e-04  3.6763974426321357e-04  1.9584144837084995e-04  9.6396308535521937e-05  2.2938585219745890e-05  1.8974424957966373e-04  9.1077837588054167e-05  2.6586736709126896e-05  1.1447172031290559e-03  7.4794934890128127e-04  4.3614195638465390e-04  2.2788322418560193e-04  2.2662420790400938e-03  5.5000884141891124e-05  4.2920501433830154e-04  7.6245467269569372e-04  6.4102281423039436e-04  2.5344565486692357e-05  1.9502577643038491e-05  3.9143545456041033e-05  2.7718066157356885e-04  5.8876079082061539e-04  8.7909989388411586e-04  7.7590376960880007e-04  3.3934180613163284e-05  5.0352604889516922e-05  1.1845722869628655e-04  1.0174124519094086e-03  2.5059064295800446e-04  1.0302314934408047e-03  2.0203935802819727e-03  7.2434144283876217e-04  1.5767427506681096e-03  5.2673803462447962e-04  9.3610660903182348e-04  3.4470522205566699e-04  1.9115771926800389e-04  8.9928569250244825e-05  1.5619973524686105e-05  1.8186500653535778e-04  8.5349554200890419e-05  1.8104173362308295e-05  1.1105310952328293e-03  6.9929583808228104e-04  4.0893405098151790e-04  1.8805127843098726e-04  1.9754734630450121e-05  5.1456548280865204e-05  4.0386110928692764e-04  7.3709792389656996e-04  6.2599716718343137e-04  0.0000000000000000e+00  1.5020796906615130e-05  3.4791465527649815e-05  2.5920399918647965e-04  5.4990101492084428e-04  8.2719037862456009e-04  7.5273199415855818e-04  0.0000000000000000e+00  4.6821116531071533e-05  1.1075168009673262e-04  9.9183472155377596e-04  2.2272933160374971e-04  9.6321575342334456e-04  1.9726326361561648e-03  6.7945035530135752e-04  1.5296545286586987e-03  4.8979517454190156e-04  9.0497476476035011e-04  3.2234922735970722e-04  1.8635201771632874e-04  8.3993044836024291e-05  7.9289758379837247e-06  1.7348511667211898e-04  8.0060012442938690e-05  9.1899997736581141e-06  1.0735984630071316e-03  6.5263743810301434e-04  3.8241246996159421e-04  9.2449295708724484e-05  1.7037298391112867e-05  4.8220220997698246e-05  3.7864246926858785e-04  7.0968257812028114e-04  6.1102586680434050e-04  1.3786265253170409e-04  1.0228374930422776e-05  3.0005595658319440e-05  2.4102468338746492e-04  5.1446460480477447e-04  7.7553743184293204e-04  7.2769858984947356e-04  1.7503334886643566e-04  4.3122881621596465e-05  1.0336210917850686e-04  9.6492330914594627e-04  1.9209096725283345e-04  8.9894809524193109e-04  1.9263939047316236e-03  6.3706410760712635e-04  1.4787832217841442e-03  4.5110798066045656e-04  8.7131547026177809e-04  2.9974121043044462e-04  1.8129573576449405e-04  7.8580412556858111e-05  0.0000000000000000e+00  1.6469726605869661e-04  7.5065617353830926e-05  0.0000000000000000e+00  1.0336674414508117e-03  6.0865476087143089e-04  2.6318720633135084e-04  9.0238285422339042e-05  1.4059331286490565e-05  4.5231771029410959e-05  3.5401207751525047e-04  6.8021258611943437e-04  5.9566468773472397e-04  1.3449986316082418e-04  5.1921046829553080e-06  2.4760886387295373e-05  2.2198699346913142e-04  4.8210767663179509e-04  7.2508933815030707e-04  7.0063283940457002e-04  1.7076388012846682e-04  3.9143545456041026e-05  9.6396308535521991e-05  9.3610660903182359e-04  1.5851518731154827e-04  8.3836599925323635e-04  1.8803224154212957e-03  5.9574706075266569e-04  1.4237819091511221e-03  4.0948018969405174e-04  8.3513357608756811e-04  2.7606570906800807e-04  1.7588147662081277e-04  7.3638146867131604e-05  2.4401621749296572e-04  1.5563075984447220e-04  7.0197206793052767e-05  1.3293241811924304e-03  9.9074378491724501e-04  1.1731181237281006e-04  2.4675278553351317e-04  8.7969696584099915e-05  1.0828433233930850e-05  4.2410071054508423e-05  3.3039169224955957e-04  6.4887007188945529e-04  5.7950254123989478e-04  1.3132036362566111e-04  0.0000000000000000e+00  1.9070722468529485e-05  2.0150225687044743e-04  4.5222903565646407e-04  6.7670994488393656e-04  6.7153864319720064e-04  1.6672712005502428e-04  3.4791465527649808e-05  8.9928569250244866e-05  9.0497476476035022e-04  1.2208767880848490e-04  7.8211558063048749e-04  1.8330511444308165e-03  5.5396424109035839e-04  1.3646585168525973e-03  3.6395313040805434e-04  7.9665268566214166e-04  2.5059064295800441e-04  1.7003223393032579e-04  6.9074420009050254e-05  2.3806409683201321e-04  1.4644099954623261e-04  6.5273913963833906e-05  1.2968988858359553e-03  4.0794828175766580e-04  1.0804576594004278e-04  2.3070171290645789e-04  8.5582818273913615e-05  7.3735951370807659e-06  3.9659548976845341e-05  3.0812586698147958e-04  6.1600170041951484e-04  5.6219613897144649e-04  1.2824219949465903e-04  1.7503334886643566e-04  1.2986161840471475e-05  1.7909871837043487e-04  4.2401756770991126e-04  6.3110496829579474e-04  6.4059580281186634e-04  1.6281901756087029e-04  3.0005595658319437e-05  8.3993044836024332e-05  8.7131547026177820e-04  8.3135306402303075e-05  7.3049387506708122e-04  1.7833150399766959e-03  5.1020855889423499e-04  1.3017784263392401e-03  3.1388819941846759e-04  7.5629841823750699e-04  2.2272933160374968e-04  1.6370811832073031e-04  6.4765340687809202e-05  2.3243639827955203e-04  1.3729666064714208e-04  6.0118157647366626e-05  4.8793318656560610e-05  3.9819182184777874e-04  9.8075411275130351e-05  2.1530883880297304e-04  8.3026952553037127e-05  3.7429677834337166e-06  3.6878019881771991e-05  2.8745206935413767e-04  5.8209109960337326e-04  5.4349933405668945e-04  1.2517516885848481e-04  1.7076388012846682e-04  6.5920062731549206e-06  1.5446212583587914e-04  3.9651773919502527e-04  5.8876079082061539e-04  6.0814656263101811e-04  1.5892505038798372e-04  2.4760886387295370e-05  7.8580412556858152e-05  8.3513357608756822e-04  4.2200957300308959e-05  6.8341980202162532e-04  1.7300576937928859e-03  4.6312702598092994e-04  1.2358371250801462e-03  2.5902335459747691e-04  7.1466454978995971e-04  1.9209096725283342e-04  1.5691004114351672e-04  6.0564958679483073e-05  2.2698806289447071e-04  1.2836562196916071e-04  6.5350822640506496e-06  4.5505029232394038e-05  3.8818128675954946e-04  8.7171135131863025e-05  2.0079870100011616e-04  8.0265747651504080e-05  0.0000000000000000e+00  3.3965155118528297e-05  2.6847946932508678e-04  5.4771950312437745e-04  5.2328462215846727e-04  1.2202826741229713e-04  1.6672712005502428e-04  0.0000000000000000e+00  1.2746353021996751e-04  3.6870790129375216e-04  5.4990101492084428e-04  5.7466838341650533e-04  1.5492967753998058e-04  1.9070722468529485e-05  7.3638146867131631e-05  7.9665268566214177e-04  0.0000000000000000e+00  6.4043654284406341e-04  1.6725216330662884e-03  4.1163537363863906e-04  1.1678048787505978e-03  1.9949861370595112e-04  6.7246469217323735e-04  1.5851518731154824e-04  1.4968001438758167e-04  5.6317225181372636e-05  2.2155943374052228e-04  4.0482974429439295e-05  4.4500482906089043e-06  4.2451855623203559e-05  3.7764877920564663e-04  7.5179984348882739e-05  1.8732605182276215e-04  7.7280373314501997e-05  1.3786265253170417e-04  3.0830884748614732e-05  2.5117826724580335e-04  5.1351779203437939e-04  5.0155491636517892e-04  1.1871727924221095e-04  1.6281901756087029e-04  9.0103270956351197e-04  9.8171833255987883e-05  3.3958496418782152e-04  5.1446460480477447e-04  5.4073508706909876e-04  1.5072597670567333e-04  1.2986161840471472e-05  6.9074420009050281e-05  7.5629841823750710e-04  1.8310218980317724e-03  6.0074546456709494e-04  1.6103144860885286e-03  3.5501133374925682e-04  1.0988477720606511e-03  1.3584809326497153e-04  6.3047341198559212e-04  1.2208767880848487e-04  1.4209800602003409e-04  5.1868926131684118e-05  3.9783494075184270e-05  3.8254405929073351e-05  2.2589235070299421e-06  3.9649920403047654e-05  3.6637058588636013e-04  6.2039196697140014e-05  1.7496203487816340e-04  7.4071259756391191e-05  1.3449986316082423e-04  2.7403027789676906e-05  2.3538056789781811e-04  4.8011386770822651e-04  4.7844450584929443e-04  1.1517187806694520e-04  1.5892505038798372e-04  8.7905443507877779e-04  6.6849869843255174e-05  3.0824840506987316e-04  4.8210767663179509e-04  5.0696950976417208e-04  1.4622466014614280e-04  6.5920062731549197e-06  6.4765340687809230e-05  7.1466454978995982e-04  1.7863590334816096e-03  5.6326907521259530e-04  1.5434452173662052e-03  2.9295853351040866e-04  1.0302314934408042e-03  6.8958903639099785e-05  5.8946161751556115e-04  8.3135306402303048e-05  1.3427557832927696e-04  1.4229660355827997e-04  3.4310927090623294e-05  3.5995541285663166e-05  0.0000000000000000e+00  3.7094822663004065e-05  3.5418629841801376e-04  4.7782308107868257e-05  1.6368723040525806e-04  7.0658239238509252e-05  1.3132036362566117e-04  2.3633502044266415e-05  2.2079284855278949e-04  4.4807972185007916e-04  4.5420900412517450e-04  1.1134163807308210e-04  1.5492967753998058e-04  8.5827409298747017e-04  3.3934180613163291e-05  2.7397655562358940e-04  4.5222903565646407e-04  4.7399154599637436e-04  1.4136170617872341e-04  0.0000000000000000e+00  6.0564958679483093e-05  6.7246469217323746e-04  1.7441305316592865e-03  5.2673803462447983e-04  1.4723270777203747e-03  2.2563533469589406e-04  9.6321575342334423e-04  0.0000000000000000e+00  5.5013157374196955e-04  4.2200957300308952e-05  1.0282202802360779e-05  1.3508860025024451e-04  2.8313684460989678e-05  3.3747841328736890e-05  9.9384642351080878e-05  3.4761767091665580e-05  3.4101282509031489e-04  3.2537245886935504e-05  1.5339222486436820e-04  6.7079061595224607e-05  1.2824219949465908e-04  1.9502577643038498e-05  2.0701909702723091e-04  4.1788264054651010e-04  4.2920501433830137e-04  1.0720043863660088e-04  1.5072597670567333e-04  8.3815605146929893e-04  0.0000000000000000e+00  2.3628868813724307e-04  4.2401756770991126e-04  4.4236589353926993e-04  1.3610395150492289e-04  2.1053305116761214e-04  5.6317225181372656e-05  6.3047341198559223e-04  1.7032479153299318e-03  4.8979517454190188e-04  1.3977466718544532e-03  1.5364582952350869e-04  8.9894809524193077e-04  1.1205351717766695e-03  5.1305699292551179e-04  3.5995541285663173e-05  8.4849658810154366e-06  1.2765203701547160e-04  2.1807071442082976e-05  3.1552571066629456e-05  9.6960420759594653e-05  3.2607405298764285e-05  3.2685206429748837e-04  1.6516483594822955e-05  1.4388573609167430e-04  6.3386391137776335e-05  1.2517516885848486e-04  1.5020796906615135e-05  1.9359279089962674e-04  3.8984467921833292e-04  4.0386110928692748e-04  1.0274887653474462e-04  1.4622466014614283e-04  8.1811077543784570e-04  1.3783562524429121e-03  1.9498754259681417e-04  3.9651773919502527e-04  4.1255387973517107e-04  1.3045215380579167e-04  2.0539766247688204e-04  5.1868926131684138e-05  5.8946161751556125e-04  1.6625131684377102e-03  4.5110798066045677e-04  1.3208013819322544e-03  7.7993350499187139e-05  8.3836599925323592e-04  1.0932027238935770e-03  0.0000000000000000e+00  3.3747841328736896e-05  6.5350822640506504e-06  1.2011437786038871e-04  1.4849471984133464e-05  2.9447321183778285e-05  9.4668332087610499e-05  3.0573252918276383e-05  3.1179152927448113e-04  0.0000000000000000e+00  1.3490969184934925e-04  5.9643520889576411e-05  1.2202826741229717e-04  1.0228374930422779e-05  1.8001512815822367e-04  3.6411389499096020e-04  3.7864246926858769e-04  9.8014462337446689e-05  1.4136170617872344e-04  7.9754348556841746e-04  1.3447349513154368e-03  1.5017852154082726e-04  3.6870790129375216e-04  3.8487345321475727e-04  1.2444124108464491e-04  2.0054217967547616e-04  4.7082513770944199e-05  5.5013157374196966e-04  1.6207176179162052e-03  4.0948018969405191e-04  1.2428100638042004e-03  0.0000000000000000e+00  7.8211558063048716e-04  7.4824770489828993e-06  5.9979758799491071e-05  3.1552571066629462e-05  4.4500482906089051e-06  1.1261397441318302e-04  7.5378555784957123e-06  2.7462801223162021e-05  9.2449295708724524e-05  2.8590412403116315e-05  2.9599779760254113e-04  4.3855168143154858e-04  1.2616006996247643e-04  5.5919150188479930e-05  1.1871727924221099e-04  5.1921046829553097e-06  1.6579636789549961e-04  3.4064987335478156e-04  3.5401207751525031e-04  9.3049561200686396e-05  1.3610395150492292e-04  7.7590376960880029e-04  1.3129461892145227e-03  1.0226369708385224e-04  3.3958496418782152e-04  3.5947078310683331e-04  1.1813769725461393e-04  1.9584144837085003e-04  4.1847758953171144e-05  5.1305699292551190e-04  1.5767427506681103e-03  3.6395313040805456e-04  1.1652042263280774e-03  1.8310218980317715e-03  1.6190577862522521e-05  7.0118713548909201e-06  5.8516713575459226e-05  2.9447321183778285e-05  2.2589235070299421e-06  1.0528852486164453e-04  0.0000000000000000e+00  2.5620176323378148e-05  9.0238285422339069e-05  2.6585219051425813e-05  2.7970325953532304e-04  4.2785439028113789e-04  1.1731181237281003e-04  5.2281653902560188e-05  1.1517187806694524e-04  0.0000000000000000e+00  1.5049684573754902e-04  3.1922491353960074e-04  3.3039169224955941e-04  8.7927227084003403e-05  1.3045215380579170e-04  7.5273199415855840e-04  1.2821705824921977e-03  5.1910867966534891e-05  3.0824840506987316e-04  3.3630597026001183e-04  1.1163427317281169e-04  1.9115771926800400e-04  3.6091234310257927e-05  4.7863327982753897e-04  1.5296545286586991e-03  3.1388819941846770e-04  1.0894086172868022e-03  2.1842267284954247e-06  1.5588391536894954e-05  6.5773103700053768e-06  5.7133412066892086e-05  2.7462801223162021e-05  0.0000000000000000e+00  9.8263466454756728e-05  5.9979758799491051e-05  2.3929176640720216e-05  8.7969696584099942e-05  2.4485346334661823e-05  2.6318720633135089e-04  4.1774015816931981e-04  1.0804576594004277e-04  4.8793318656560596e-05  1.1134163807308214e-04  6.7295812365441199e-04  1.3376421986041362e-04  2.9944093779238318e-04  3.0812586698147947e-04  8.2735257698270370e-05  1.2444124108464493e-04  7.2769858984947377e-04  1.2515062888914890e-03  0.0000000000000000e+00  2.7397655562358940e-04  3.1515421750147814e-04  1.0504243867588093e-04  1.8635201771632882e-04  2.9782809930179704e-05  4.4704221214392768e-04  1.4787832217841447e-03  2.5902335459747702e-04  7.4824770489828993e-06  1.4873438507289173e-06  1.4941074288224240e-05  6.1669970861434063e-06  5.5794198445710007e-05  2.5620176323378148e-05  2.0014788374043789e-04  9.1641274596903293e-05  5.8516713575459206e-05  2.2387146176742071e-05  8.5582818273913642e-05  2.2225863189479955e-05  2.4675278553351322e-04  4.0794828175766575e-04  9.8075411275130351e-05  4.5505029232394024e-05  1.0720043863660092e-04  6.5654311651713133e-04  1.1536378343971534e-04  2.8076087138277563e-04  2.8745206935413761e-04  7.7568950191213770e-05  1.1813769725461397e-04  7.0063283940457024e-04  1.2200434437733962e-03  1.3783562524429121e-03  2.3628868813724307e-04  2.9562252329080966e-04  9.8483185044619424e-05  1.8129573576449414e-04  2.2938585219745903e-05  4.1823417080760159e-04  1.4237819091511225e-03  1.4252626524913345e-05  7.0118713548909201e-06  7.5500214110895862e-07  1.4252626524913345e-05  5.7670340298089805e-06  5.4459828662377474e-05  2.3929176640720216e-05  1.9526581333422923e-04  8.5492575742477294e-05  5.7133412066892066e-05  2.0979120679801002e-05  8.3026952553037154e-05  1.9754734630450135e-05  2.3070171290645795e-04  3.9819182184777868e-04  8.7171135131863025e-05  4.2451855623203545e-05  1.0274887653474466e-04  6.4102281423039458e-04  9.5199227753618517e-05  2.6255201306019202e-04  2.6847946932508673e-04  7.2523151618234701e-05  1.1163427317281172e-04  6.7153864319720086e-04  1.1869400531001805e-03  1.3447349513154368e-03  1.9498754259681417e-04  2.7718066157356874e-04  9.2076932113058428e-05  1.7588147662081285e-04  1.5619973524686112e-05  3.9192959533648151e-04  1.9095754373763376e-05  1.3530662847841510e-05  6.5773103700053768e-06  0.0000000000000000e+00  1.3530662847841510e-05  5.3625621343883538e-06  5.3090709569991666e-05  2.2387146176742071e-05  1.9064984162883754e-04  7.9849838681443820e-05  5.5794198445709987e-05  1.9678938904747769e-05  8.0265747651504107e-05  1.7037298391112874e-05  2.1530883880297309e-04  3.8818128675954940e-04  7.5179984348882739e-05  3.9649920403047641e-05  9.8014462337446716e-05  6.2599716718343159e-04  7.3322013732073720e-05  2.4413788374865158e-04  2.5117826724580330e-04  6.7684263651676484e-05  1.0504243867588095e-04  6.4059580281186656e-04  1.1514929919302079e-03  1.3129461892145227e-03  1.5017852154082726e-04  2.5920399918647955e-04  8.5933377277702222e-05  1.7003223393032588e-04  7.9289758379837281e-06  0.0000000000000000e+00  1.8648147738014932e-05  1.2785806289331244e-05  6.1669970861434063e-06  2.004709153536397