<?xml version="1.0"?>
<VTKFile type="UnstructuredGrid"  version="0.1"  >
<UnstructuredGrid>
<Piece  NumberOfPoints="1089" NumberOfCells="2048">
<Points>
<DataArray  type="Float64"  NumberOfComponents="3"  format="ascii">0 0 0  0.03125 0 0  0.0625 0 0  0.09375 0 0  0.125 0 0  0.15625 0 0  0.1875 0 0  0.21875 0 0  0.25 0 0  0.28125 0 0  0.3125 0 0  0.34375 0 0  0.375 0 0  0.40625 0 0  0.4375 0 0  0.46875 0 0  0.5 0 0  0.53125 0 0  0.5625 0 0  0.59375 0 0  0.625 0 0  0.65625 0 0  0.6875 0 0  0.71875 0 0  0.75 0 0  0.78125 0 0  0.8125 0 0  0.84375 0 0  0.875 0 0  0.90625 0 0  0.9375 0 0  0.96875 0 0  1 0 0  0 0.03125 0  0.03125 0.03125 0  0.0625 0.03125 0  0.09375 0.03125 0  0.125 0.03125 0  0.15625 0.03125 0  0.1875 0.03125 0  0.21875 0.03125 0  0.25 0.03125 0  0.28125 0.03125 0  0.3125 0.03125 0  0.34375 0.03125 0  0.375 0.03125 0  0.40625 0.03125 0  0.4375 0.03125 0  0.46875 0.03125 0  0.5 0.03125 0  0.53125 0.03125 0  0.5625 0.03125 0  0.59375 0.03125 0  0.625 0.03125 0  0.65625 0.03125 0  0.6875 0.03125 0  0.71875 0.03125 0  0.75 0.03125 0  0.78125 0.03125 0  0.8125 0.03125 0  0.84375 0.03125 0  0.875 0.03125 0  0.90625 0.03125 0  0.9375 0.03125 0  0.96875 0.03125 0  1 0.03125 0  0 0.0625 0  0.03125 0.0625 0  0.0625 0.0625 0  0.09375 0.0625 0  0.125 0.0625 0  0.15625 0.0625 0  0.1875 0.0625 0  0.21875 0.0625 0  0.25 0.0625 0  0.28125 0.0625 0  0.3125 0.0625 0  0.34375 0.0625 0  0.375 0.0625 0  0.40625 0.0625 0  0.4375 0.0625 0  0.46875 0.0625 0  0.5 0.0625 0  0.53125 0.0625 0  0.5625 0.0625 0  0.59375 0.0625 0  0.625 0.0625 0  0.65625 0.0625 0  0.6875 0.0625 0  0.71875 0.0625 0  0.75 0.0625 0  0.78125 0.0625 0  0.8125 0.0625 0  0.84375 0.0625 0  0.875 0.0625 0  0.90625 0.0625 0  0.9375 0.0625 0  0.96875 0.0625 0  1 0.0625 0  0 0.09375 0  0.03125 0.09375 0  0.0625 0.09375 0  0.09375 0.09375 0  0.125 0.09375 0  0.15625 0.09375 0  0.1875 0.09375 0  0.21875 0.09375 0  0.25 0.09375 0  0.28125 0.09375 0  0.3125 0.09375 0  0.34375 0.09375 0  0.375 0.09375 0  0.40625 0.09375 0  0.4375 0.09375 0  0.46875 0.09375 0  0.5 0.09375 0  0.53125 0.09375 0  0.5625 0.09375 0  0.59375 0.09375 0  0.625 0.09375 0  0.65625 0.09375 0  0.6875 0.09375 0  0.71875 0.09375 0  0.75 0.09375 0  0.78125 0.09375 0  0.8125 0.09375 0  0.84375 0.09375 0  0.875 0.09375 0  0.90625 0.09375 0  0.9375 0.09375 0  0.96875 0.09375 0  1 0.09375 0  0 0.125 0  0.03125 0.125 0  0.0625 0.125 0  0.09375 0.125 0  0.125 0.125 0  0.15625 0.125 0  0.1875 0.125 0  0.21875 0.125 0  0.25 0.125 0  0.28125 0.125 0  0.3125 0.125 0  0.34375 0.125 0  0.375 0.125 0  0.40625 0.125 0  0.4375 0.125 0  0.46875 0.125 0  0.5 0.125 0  0.53125 0.125 0  0.5625 0.125 0  0.59375 0.125 0  0.625 0.125 0  0.65625 0.125 0  0.6875 0.125 0  0.71875 0.125 0  0.75 0.125 0  0.78125 0.125 0  0.8125 0.125 0  0.84375 0.125 0  0.875 0.125 0  0.90625 0.125 0  0.9375 0.125 0  0.96875 0.125 0  1 0.125 0  0 0.15625 0  0.03125 0.15625 0  0.0625 0.15625 0  0.09375 0.15625 0  0.125 0.15625 0  0.15625 0.15625 0  0.1875 0.15625 0  0.21875 0.15625 0  0.25 0.15625 0  0.28125 0.15625 0  0.3125 0.15625 0  0.34375 0.15625 0  0.375 0.15625 0  0.40625 0.15625 0  0.4375 0.15625 0  0.46875 0.15625 0  0.5 0.15625 0  0.53125 0.15625 0  0.5625 0.15625 0  0.59375 0.15625 0  0.625 0.15625 0  0.65625 0.15625 0  0.6875 0.15625 0  0.71875 0.15625 0  0.75 0.15625 0  0.78125 0.15625 0  0.8125 0.15625 0  0.84375 0.15625 0  0.875 0.15625 0  0.90625 0.15625 0  0.9375 0.15625 0  0.96875 0.15625 0  1 0.15625 0  0 0.1875 0  0.03125 0.1875 0  0.0625 0.1875 0  0.09375 0.1875 0  0.125 0.1875 0  0.15625 0.1875 0  0.1875 0.1875 0  0.21875 0.1875 0  0.25 0.1875 0  0.28125 0.1875 0  0.3125 0.1875 0  0.34375 0.1875 0  0.375 0.1875 0  0.40625 0.1875 0  0.4375 0.1875 0  0.46875 0.1875 0  0.5 0.1875 0  0.53125 0.1875 0  0.5625 0.1875 0  0.59375 0.1875 0  0.625 0.1875 0  0.65625 0.1875 0  0.6875 0.1875 0  0.71875 0.1875 0  0.75 0.1875 0  0.78125 0.1875 0  0.8125 0.1875 0  0.84375 0.1875 0  0.875 0.1875 0  0.90625 0.1875 0  0.9375 0.1875 0  0.96875 0.1875 0  1 0.1875 0  0 0.21875 0  0.03125 0.21875 0  0.0625 0.21875 0  0.09375 0.21875 0  0.125 0.21875 0  0.15625 0.21875 0  0.1875 0.21875 0  0.21875 0.21875 0  0.25 0.21875 0  0.28125 0.21875 0  0.3125 0.21875 0  0.34375 0.21875 0  0.375 0.21875 0  0.40625 0.21875 0  0.4375 0.21875 0  0.46875 0.21875 0  0.5 0.21875 0  0.53125 0.21875 0  0.5625 0.21875 0  0.59375 0.21875 0  0.625 0.21875 0  0.65625 0.21875 0  0.6875 0.21875 0  0.71875 0.21875 0  0.75 0.21875 0  0.78125 0.21875 0  0.8125 0.21875 0  0.84375 0.21875 0  0.875 0.21875 0  0.90625 0.21875 0  0.9375 0.21875 0  0.96875 0.21875 0  1 0.21875 0  0 0.25 0  0.03125 0.25 0  0.0625 0.25 0  0.09375 0.25 0  0.125 0.25 0  0.15625 0.25 0  0.1875 0.25 0  0.21875 0.25 0  0.25 0.25 0  0.28125 0.25 0  0.3125 0.25 0  0.34375 0.25 0  0.375 0.25 0  0.40625 0.25 0  0.4375 0.25 0  0.46875 0.25 0  0.5 0.25 0  0.53125 0.25 0  0.5625 0.25 0  0.59375 0.25 0  0.625 0.25 0  0.65625 0.25 0  0.6875 0.25 0  0.71875 0.25 0  0.75 0.25 0  0.78125 0.25 0  0.8125 0.25 0  0.84375 0.25 0  0.875 0.25 0  0.90625 0.25 0  0.9375 0.25 0  0.96875 0.25 0  1 0.25 0  0 0.28125 0  0.03125 0.28125 0  0.0625 0.28125 0  0.09375 0.28125 0  0.125 0.28125 0  0.15625 0.28125 0  0.1875 0.28125 0  0.21875 0.28125 0  0.25 0.28125 0  0.28125 0.28125 0  0.3125 0.28125 0  0.34375 0.28125 0  0.375 0.28125 0  0.40625 0.28125 0  0.4375 0.28125 0  0.46875 0.28125 0  0.5 0.28125 0  0.53125 0.28125 0  0.5625 0.28125 0  0.59375 0.28125 0  0.625 0.28125 0  0.65625 0.28125 0  0.6875 0.28125 0  0.71875 0.28125 0  0.75 0.28125 0  0.78125 0.28125 0  0.8125 0.28125 0  0.84375 0.28125 0  0.875 0.28125 0  0.90625 0.28125 0  0.9375 0.28125 0  0.96875 0.28125 0  1 0.28125 0  0 0.3125 0  0.03125 0.3125 0  0.0625 0.3125 0  0.09375 0.3125 0  0.125 0.3125 0  0.15625 0.3125 0  0.1875 0.3125 0  0.21875 0.3125 0  0.25 0.3125 0  0.28125 0.3125 0  0.3125 0.3125 0  0.34375 0.3125 0  0.375 0.3125 0  0.40625 0.3125 0  0.4375 0.3125 0  0.46875 0.3125 0  0.5 0.3125 0  0.53125 0.3125 0  0.5625 0.3125 0  0.59375 0.3125 0  0.625 0.3125 0  0.65625 0.3125 0  0.6875 0.3125 0  0.71875 0.3125 0  0.75 0.3125 0  0.78125 0.3125 0  0.8125 0.3125 0  0.84375 0.3125 0  0.875 0.3125 0  0.90625 0.3125 0  0.9375 0.3125 0  0.96875 0.3125 0  1 0.3125 0  0 0.34375 0  0.03125 0.34375 0  0.0625 0.34375 0  0.09375 0.34375 0  0.125 0.34375 0  0.15625 0.34375 0  0.1875 0.34375 0  0.21875 0.34375 0  0.25 0.34375 0  0.28125 0.34375 0  0.3125 0.34375 0  0.34375 0.34375 0  0.375 0.34375 0  0.40625 0.34375 0  0.4375 0.34375 0  0.46875 0.34375 0  0.5 0.34375 0  0.53125 0.34375 0  0.5625 0.34375 0  0.59375 0.34375 0  0.625 0.34375 0  0.65625 0.34375 0  0.6875 0.34375 0  0.71875 0.34375 0  0.75 0.34375 0  0.78125 0.34375 0  0.8125 0.34375 0  0.84375 0.34375 0  0.875 0.34375 0  0.90625 0.34375 0  0.9375 0.34375 0  0.96875 0.34375 0  1 0.34375 0  0 0.375 0  0.03125 0.375 0  0.0625 0.375 0  0.09375 0.375 0  0.125 0.375 0  0.15625 0.375 0  0.1875 0.375 0  0.21875 0.375 0  0.25 0.375 0  0.28125 0.375 0  0.3125 0.375 0  0.34375 0.375 0  0.375 0.375 0  0.40625 0.375 0  0.4375 0.375 0  0.46875 0.375 0  0.5 0.375 0  0.53125 0.375 0  0.5625 0.375 0  0.59375 0.375 0  0.625 0.375 0  0.65625 0.375 0  0.6875 0.375 0  0.71875 0.375 0  0.75 0.375 0  0.78125 0.375 0  0.8125 0.375 0  0.84375 0.375 0  0.875 0.375 0  0.90625 0.375 0  0.9375 0.375 0  0.96875 0.375 0  1 0.375 0  0 0.40625 0  0.03125 0.40625 0  0.0625 0.40625 0  0.09375 0.40625 0  0.125 0.40625 0  0.15625 0.40625 0  0.1875 0.40625 0  0.21875 0.40625 0  0.25 0.40625 0  0.28125 0.40625 0  0.3125 0.40625 0  0.34375 0.40625 0  0.375 0.40625 0  0.40625 0.40625 0  0.4375 0.40625 0  0.46875 0.40625 0  0.5 0.40625 0  0.53125 0.40625 0  0.5625 0.40625 0  0.59375 0.40625 0  0.625 0.40625 0  0.65625 0.40625 0  0.6875 0.40625 0  0.71875 0.40625 0  0.75 0.40625 0  0.78125 0.40625 0  0.8125 0.40625 0  0.84375 0.40625 0  0.875 0.40625 0  0.90625 0.40625 0  0.9375 0.40625 0  0.96875 0.40625 0  1 0.40625 0  0 0.4375 0  0.03125 0.4375 0  0.0625 0.4375 0  0.09375 0.4375 0  0.125 0.4375 0  0.15625 0.4375 0  0.1875 0.4375 0  0.21875 0.4375 0  0.25 0.4375 0  0.28125 0.4375 0  0.3125 0.4375 0  0.34375 0.4375 0  0.375 0.4375 0  0.40625 0.4375 0  0.4375 0.4375 0  0.46875 0.4375 0  0.5 0.4375 0  0.53125 0.4375 0  0.5625 0.4375 0  0.59375 0.4375 0  0.625 0.4375 0  0.65625 0.4375 0  0.6875 0.4375 0  0.71875 0.4375 0  0.75 0.4375 0  0.78125 0.4375 0  0.8125 0.4375 0  0.84375 0.4375 0  0.875 0.4375 0  0.90625 0.4375 0  0.9375 0.4375 0  0.96875 0.4375 0  1 0.4375 0  0 0.46875 0  0.03125 0.46875 0  0.0625 0.46875 0  0.09375 0.46875 0  0.125 0.46875 0  0.15625 0.46875 0  0.1875 0.46875 0  0.21875 0.46875 0  0.25 0.46875 0  0.28125 0.46875 0  0.3125 0.46875 0  0.34375 0.46875 0  0.375 0.46875 0  0.40625 0.46875 0  0.4375 0.46875 0  0.46875 0.46875 0  0.5 0.46875 0  0.53125 0.46875 0  0.5625 0.46875 0  0.59375 0.46875 0  0.625 0.46875 0  0.65625 0.46875 0  0.6875 0.46875 0  0.71875 0.46875 0  0.75 0.46875 0  0.78125 0.46875 0  0.8125 0.46875 0  0.84375 0.46875 0  0.875 0.46875 0  0.90625 0.46875 0  0.9375 0.46875 0  0.96875 0.46875 0  1 0.46875 0  0 0.5 0  0.03125 0.5 0  0.0625 0.5 0  0.09375 0.5 0  0.125 0.5 0  0.15625 0.5 0  0.1875 0.5 0  0.21875 0.5 0  0.25 0.5 0  0.28125 0.5 0  0.3125 0.5 0  0.34375 0.5 0  0.375 0.5 0  0.40625 0.5 0  0.4375 0.5 0  0.46875 0.5 0  0.5 0.5 0  0.53125 0.5 0  0.5625 0.5 0  0.59375 0.5 0  0.625 0.5 0  0.65625 0.5 0  0.6875 0.5 0  0.71875 0.5 0  0.75 0.5 0  0.78125 0.5 0  0.8125 0.5 0  0.84375 0.5 0  0.875 0.5 0  0.90625 0.5 0  0.9375 0.5 0  0.96875 0.5 0  1 0.5 0  0 0.53125 0  0.03125 0.53125 0  0.0625 0.53125 0  0.09375 0.53125 0  0.125 0.53125 0  0.15625 0.53125 0  0.1875 0.53125 0  0.21875 0.53125 0  0.25 0.53125 0  0.28125 0.53125 0  0.3125 0.53125 0  0.34375 0.53125 0  0.375 0.53125 0  0.40625 0.53125 0  0.4375 0.53125 0  0.46875 0.53125 0  0.5 0.53125 0  0.53125 0.53125 0  0.5625 0.53125 0  0.59375 0.53125 0  0.625 0.53125 0  0.65625 0.53125 0  0.6875 0.53125 0  0.71875 0.53125 0  0.75 0.53125 0  0.78125 0.531
[...]
<PointData  Scalars="theta"> 
<DataArray  type="Float64"  Name="theta"  format="ascii">8.0352495595326333e-03  2.1337676030628326e-02  2.2864748942574255e-02  1.3531839000708039e-03  1.6628542481902004e-03  2.7033670157616735e-02  1.2964687063638226e-02  3.2055253762714078e-02  1.2416306967322223e-02  3.1760857998988103e-03  2.3602278972445372e-03  7.9061742822346438e-03  3.1221465314493972e-03  5.1751518767206003e-02  4.5220954020237084e-02  3.7858478472508804e-02  2.8996063239617623e-02  1.7213887214376635e-02  3.5045333561107071e-03  3.0899368838712131e-04  1.5247398632212740e-03  1.4547959279934840e-02  3.9542260474102919e-02  1.5869584046831847e-02  4.3296946723580913e-02  1.7511368627353349e-02  5.3377757809433206e-02  3.1982003343470941e-02  5.3859599127264370e-03  5.5800532563215287e-02  4.3007625424961352e-02  3.3433641506178516e-02  2.5628652610076103e-02  6.2004015797876275e-04  7.1418698740637124e-03  1.9841154556440775e-02  2.1426684919668679e-02  0.0000000000000000e+00  1.4779738416486980e-03  2.5333404453479601e-02  9.9853432148874575e-03  3.0068628232831161e-02  1.0246047759508756e-02  2.9664557016538390e-03  2.1946929192491397e-03  6.5242458569986939e-03  0.0000000000000000e+00  4.8335781080320613e-02  4.2376810521382265e-02  3.5512197877984479e-02  2.7199031154820089e-02  1.6131230590438989e-02  3.2732248468230573e-03  0.0000000000000000e+00  1.2582289967949527e-03  1.3527635724699595e-02  3.6932366261459626e-02  1.3095722946872728e-02  4.0613616859348271e-02  1.3487176747748391e-02  5.0020597259719746e-02  2.8426162062379735e-02  0.0000000000000000e+00  5.2290993117159311e-02  3.9991278428695987e-02  2.9716403365461979e-02  1.2938629013910760e-02  4.2221482968938541e-04  6.1594433127624667e-03  1.8273971715420206e-02  2.0098765334402947e-02  3.0196239212808710e-03  1.2746656346177660e-03  2.3763365781545191e-02  6.7994950498160654e-03  2.8192852741423472e-02  7.8914595448872082e-03  2.7752930414974633e-03  2.0213418637663287e-03  5.0249445883777180e-03  4.9558791560930647e-02  4.5220954020237139e-02  3.9750506132093244e-02  3.3296835410839720e-02  2.5502270144135239e-02  1.5131496981820036e-02  3.0622935429577094e-03  4.0724374519303368e-03  9.6908227049757986e-04  1.2459135475532186e-02  3.4552391608046094e-02  1.0086266458243802e-02  3.8080011849758698e-02  9.1840600326669013e-03  4.6920568906435006e-02  2.4515895264135001e-02  6.8451732160582687e-02  4.9050256897179220e-02  3.6832508349785270e-02  1.6106067037410944e-02  1.2084645134940057e-02  2.1432374246695951e-04  5.0828278102858270e-03  1.6587667975943514e-02  1.8844941211469964e-02  2.8170213469796567e-03  1.0518655026869740e-03  2.2280932370176306e-02  3.4515443880411409e-03  2.6364394029389653e-02  5.3736700838969689e-03  2.6007427288733719e-03  1.8348144685885386e-03  3.4217237323734204e-03  4.6233629550277766e-02  4.2376810521382320e-02  3.7270744681179496e-02  3.1137355866556034e-02  2.3848310239851723e-02  1.4187546663666962e-02  2.8696925140654262e-03  3.7991960374525444e-03  6.5989420286411988e-04  1.1309418978745243e-02  3.2379240640953884e-02  6.8682184856404573e-03  3.5610317489289126e-02  4.6619919027725276e-03  4.3993516414512615e-02  2.0230736434314747e-02  6.3858942623656351e-02  4.5990347777862643e-02  3.3003287691187300e-03  1.4976465334226776e-02  1.1305893269623810e-02  0.0000000000000000e+00  3.9147709419247671e-03  1.4743408443091712e-02  1.7622745031044069e-02  2.6310904562762815e-03  8.1014204266354904e-04  2.0835893612369913e-02  0.0000000000000000e+00  2.4515322848334617e-02  2.7277703249097710e-03  2.4395616026816024e-03  1.6308150830440281e-03  1.7369277070390906e-03  4.3182087206819937e-02  3.9750506132093306e-02  3.4853535665783843e-02  2.8953532209432645e-02  2.2175705015843452e-02  1.3267407664698161e-02  2.6918432150532454e-03  3.5484390085937967e-03  3.3497401143900364e-04  1.0052008727176733e-02  3.0372536012386465e-02  3.4864296240048028e-03  3.3112781921270269e-02  0.0000000000000000e+00  4.1140299356313727e-02  1.5581621507327906e-02  5.9644082805812765e-02  1.9904718525297713e-03  2.2473508066233527e-03  1.3793527142592131e-02  1.0594816213904091e-02  3.0196239212808753e-03  2.6657537019954334e-03  1.2715323877842584e-02  1.6386770863321513e-02  2.4615392135412507e-03  5.5166424330070087e-04  1.9374564731940724e-02  4.4933354056110160e-02  2.2578943934461498e-02  0.0000000000000000e+00  2.2873740858898352e-03  1.4064822287068875e-03  0.0000000000000000e+00  4.0399371571808729e-02  3.7270744681179552e-02  3.2409077117423767e-02  2.6666594786689295e-02  2.0424124265363282e-02  1.2336895810992945e-02  2.5239175787252219e-03  3.3197725094085014e-03  0.0000000000000000e+00  8.6692671563909744e-03  2.8477801798947166e-02  0.0000000000000000e+00  3.0497320028775452e-02  6.5479661448830384e-02  3.8254917585925363e-02  1.0610267071163235e-02  3.4460615632719072e-03  1.8671122863251023e-03  1.1407951631305911e-03  1.2520674324203521e-02  9.9382020897182486e-03  2.8170213469796610e-03  1.3531839000708048e-03  1.0492799193260811e-02  1.5092437610501972e-02  2.3067222508509786e-03  2.8003456272815506e-04  1.7844236176020916e-02  4.1918537164643020e-02  2.0495381686305669e-02  1.8874935173702152e-02  2.1390255270055986e-03  1.1606417372056182e-03  3.7957411712234247e-02  3.7858478472508790e-02  3.4853535665783898e-02  2.9849198386210963e-02  2.4205828227115481e-02  1.8539406610078964e-02  1.1362447909211423e-02  2.3602278972445377e-03  3.1109775026493397e-03  2.3154801091045306e-02  7.1539569340624398e-03  2.6630862602107723e-02  5.6678040018349224e-02  2.7683057994805849e-02  6.1086283889323696e-02  3.5233296527797137e-02  1.2226940247649877e-02  2.6541409970018393e-03  1.7506359562685569e-03  0.0000000000000000e+00  1.1128593592081697e-02  9.3182258219550382e-03  2.6310904562762850e-03  0.0000000000000000e+00  8.0815063807796288e-03  1.3699722639900800e-02  2.1637630545890572e-03  0.0000000000000000e+00  1.6197588000116295e-02  3.9151802379206936e-02  1.8216652505734673e-02  1.7608515726892870e-02  1.9890046142124556e-03  8.9392100546922316e-04  3.5410647768382708e-02  3.5512197877984465e-02  3.2409077117423822e-02  2.7094744365874768e-02  2.1514562069438980e-02  1.6478147762624306e-02  1.0313932638568642e-02  2.1946929192491402e-03  2.9181745576031385e-03  2.1601222754545572e-02  5.5099452058113190e-03  2.4763102603175036e-02  5.2875209893333580e-02  2.4605184499902719e-02  5.7054426911924930e-02  9.1743320846632303e-04  1.1464185303398520e-02  1.8073308230128053e-03  1.6370977629116370e-03  2.2664685185670660e-02  9.5977583727938093e-03  8.7138885687824113e-03  2.4615392135412546e-03  2.8048686968407635e-02  5.5030820121677072e-03  1.2176552287521861e-02  2.0287807176635579e-03  1.8874935173702159e-02  1.4396698560941149e-02  3.6628804079062667e-02  1.5710792892607118e-02  1.6446306921987699e-02  1.8319001527136356e-03  6.0871332319878478e-04  3.3073450967578188e-02  3.3296835410839706e-02  2.9849198386211015e-02  2.4082281091385757e-02  1.8555046199716964e-02  1.4211434656881657e-02  9.1672031153193292e-03  2.0213418637663291e-03  2.7361296610945345e-03  2.0175484681477399e-02  3.7519837170758765e-03  2.2807152440107045e-02  4.9385305607682305e-02  2.1220526528716827e-02  1.0582034462143677e-03  0.0000000000000000e+00  1.0720670991930133e-02  9.1743320846632173e-04  1.5222796377313231e-03  2.1143991323106591e-02  7.9201562051166661e-03  8.1027385378164424e-03  2.3067222508509817e-03  2.6166751888506104e-02  2.7934621169466716e-03  1.0501561199294676e-02  1.8972033348410042e-03  1.7608515726892877e-02  1.2416306967322228e-02  3.4325058453844939e-02  1.2964687063638200e-02  1.5386483315249664e-02  1.6628542481901978e-03  3.0899368838712126e-04  3.0942150350485254e-02  3.1137355866556023e-02  2.7094744365874810e-02  2.0769553049837429e-02  1.5311790377166635e-02  1.1727403213272099e-02  7.9061742822346438e-03  1.8348144685885390e-03  2.5586768803501532e-03  1.8875347511215529e-02  1.9045735378607708e-03  2.0702531340463241e-02  4.6202845681738741e-02  1.2229341815004344e-03  9.4054966894996763e-04  1.7063218256532939e-02  9.9687749403594896e-03  0.0000000000000000e+00  1.4020401365117182e-03  1.9748431738886643e-02  6.1000684116333066e-03  7.4627317899419931e-03  2.1637630545890602e-03  2.4439676766884987e-02  0.0000000000000000e+00  8.6659823956158899e-03  1.7641426619066898e-03  1.6446306921987706e-02  1.0246047759508759e-02  3.2197761694820373e-02  9.9853432148874384e-03  1.4418760111716149e-02  1.4779738416486957e-03  0.0000000000000000e+00  2.8996063239617623e-02  2.8953532209432635e-02  2.4082281091385799e-02  1.7139221271861006e-02  1.1793071548887356e-02  9.0323928012369659e-03  6.5242458569986939e-03  1.6308150830440288e-03  2.3792236497614584e-03  1.7688194385506933e-02  0.0000000000000000e+00  1.8400770729255878e-02  7.7722577033038425e-03  1.1466437053436760e-03  8.1116884945965466e-04  1.5918356500645596e-02  9.1813765564556764e-03  2.1665560677345064e-03  1.2726612821545630e-03  1.8475814472760789e-02  4.1538266713356522e-03  6.7740784024864584e-03  2.0287807176635605e-03  2.2864748942574308e-02  3.3961439864339270e-02  6.6745003631513769e-03  1.6247992531857980e-03  1.5386483315249670e-02  7.8914595448872117e-03  3.0189164169264326e-02  6.7994950498160515e-03  1.3525156923944428e-02  1.2746656346177641e-03  2.1116651453211368e-02  2.7199031154820089e-02  2.6666594786689288e-02  2.0769553049837460e-02  1.3200550541279743e-02  8.0304632392838617e-03  6.1505857954324925e-03  5.0249445883777180e-03  1.4064822287068878e-03  2.1912971625074147e-03  1.6591967888474685e-02  4.2386173522306121e-02  6.8527770484807550e-04  7.2592680523376335e-03  1.0722776703821308e-03  6.6938380264464829e-04  1.4867702693612065e-02  8.3341283576620854e-03  2.0211903373872878e-03  1.1311635318313174e-03  1.7313789726550562e-02  2.1085561547297578e-03  6.0209189657175564e-03  1.8972033348410066e-03  2.1426684919668725e-02  3.1682786852287245e-02  4.5449847043394602e-03  1.4748644114768051e-03  1.4418760111716155e-02  5.3736700838969698e-03  2.8231233883152969e-02  3.4515443880411339e-03  1.2681415145006973e-02  1.0518655026869725e-03  1.9699823379062547e-02  2.5502270144135239e-02  2.4205828227115474e-02  1.7139221271861030e-02  8.9888826181214066e-03  4.0764056924595723e-03  3.1221465314493972e-03  3.4217237323734204e-03  1.1606417372056186e-03  1.9890864632141252e-03  1.5556908807015093e-02  4.0611821187658829e-04  0.0000000000000000e+00  6.7914704071884444e-03  9.9707329677952892e-04  5.1555637086218983e-04  1.3909606607518329e-02  7.4075185597134025e-03  1.8877864069859794e-03  9.7556211113305796e-04  1.6240766972015434e-02  0.0000000000000000e+00  5.1926889895813969e-03  1.7641426619066918e-03  2.0098765334402989e-02  2.9591638772871041e-02  2.3071149158965928e-03  1.3108851978540868e-03  1.3525156923944431e-02  2.7277703249097719e-03  2.6251231576983100e-02  0.0000000000000000e+00  1.1858956906549374e-02  8.1014204266354785e-04  1.8399582714753965e-02  2.3848310239851723e-02  2.1514562069438973e-02  1.3200550541279764e-02  4.5629163824711921e-03  0.0000000000000000e+00  0.0000000000000000e+00  1.7369277070390906e-03  8.9392100546922338e-04  1.7679347210422139e-03  3.8015984125138906e-04  2.7654520349164953e-04  1.1299196029222681e-02  6.3643251417960832e-03  9.1831799262080801e-04  3.5106685029635251e-04  1.3034770636859745e-02  6.3885497021565511e-03  1.7661347432967852e-03  8.0504259514068907e-04  1.5227616907041497e-02  2.2664685185670653e-02  4.2850534806808714e-03  1.6247992531857999e-03  1.8844941211470002e-02  2.7684711127514729e-02  0.0000000000000000e+00  1.1305614927323482e-03  1.2681415145006975e-02  0.0000000000000000e+00  2.4177739353227892e-02  3.3162793685711192e-02  1.1027226982135796e-02  5.5166424330070000e-04  1.7213887214376635e-02  2.2175705015843452e-02  1.8555046199716957e-02  8.9888826181214205e-03  0.0000000000000000e+00  3.7957411712234247e-02  2.1116651453211368e-02  0.0000000000000000e+00  6.0871332319878488e-04  1.6775756806249264e-03  2.9279738668424042e-04  1.4037925436494273e-04  1.0541073076585746e-02  5.9698958572625598e-03  8.3357653142666238e-04  1.7820776514874197e-04  1.2226940247649896e-02  5.2718884556064109e-03  1.6550548079641240e-03  6.2004015797876297e-04  1.4240023737504453e-02  2.1143991323106584e-02  3.3003287691187270e-03  1.4748644114768066e-03  1.7622745031044103e-02  2.5943498610508615e-02  1.6451296535883564e-02  9.3294947363043346e-04  1.1858956906549376e-02  4.1962057212961590e-02  2.1946641871062208e-02  3.0937726078982496e-02  1.0156225203419631e-02  2.8003456272815462e-04  1.6131230590438989e-02  2.0424124265363282e-02  1.5311790377166630e-02  4.5629163824711990e-03  4.9558791560930668e-02  3.5410647768382708e-02  1.9699823379062547e-02  3.7565823796063143e-03  1.2920611857242556e-03  1.2920611857242551e-03  1.9937966462588050e-04  0.0000000000000000e+00  9.8453342572117561e-03  5.5974749989314712e-03  7.4089735152779420e-04  0.0000000000000000e+00  1.1464185303398539e-02  4.0603845940466845e-03  1.5524827254220263e-03  4.2221482968938557e-04  1.3241297292997254e-02  1.9748431738886636e-02  2.2473508066233510e-03  1.3108851978540881e-03  1.6386770863321545e-02  2.4335649330773115e-02  1.5347491851706594e-02  7.1855345606268840e-04  1.1027226982135797e-02  3.9146600375967594e-02  1.9506557855425356e-02  2.8895753989431342e-02  9.2190189514781331e-03  0.0000000000000000e+00  1.5131496981820036e-02  1.8539406610078964e-02  1.1793071548887354e-02  0.0000000000000000e+00  4.6233629550277787e-02  3.3073450967578188e-02  1.8399582714753965e-02  1.0120865703808385e-04  8.7982590556258291e-04  8.7982590556258270e-04  1.0120865703808380e-04  8.3312450963209800e-03  9.2108867966654833e-03  5.2344485247730072e-03  6.3898045158790632e-04  1.1153669330204737e-02  1.0720670991930149e-02  2.7649089624087607e-03  1.4556339758006252e-03  2.1432374246695959e-04  1.2195413906957046e-02  1.8475814472760782e-02  1.1407951631305902e-03  1.1305614927323495e-03  1.5092437610502003e-02  2.2817515073743258e-02  1.4334516627677802e-02  4.8929721917240492e-04  1.0156225203419633e-02  3.6562820780645523e-02  1.6823260498479091e-02  2.7033670157616728e-02  8.1940247443682036e-03  3.7565823796063139e-03  1.4187546663666962e-02  1.6478147762624306e-02  8.0304632392838582e-03  5.5473532069474758e-02  4.3182087206819951e-02  3.0942150350485254e-02  1.1478846586431334e-03  0.0000000000000000e+00  4.4661524783077763e-04  4.4661524783077753e-04  0.0000000000000000e+00  7.7722577033038373e-03  8.6315738571441213e-03  4.8673296027494503e-03  5.2729239391333539e-04  1.0405310535164650e-02  9.9687749403595035e-03  1.4035168704041880e-03  1.3612282535774723e-03  0.0000000000000000e+00  1.1070033371404716e-02  1.7313789726550555e-02  0.0000000000000000e+00  9.3294947363043443e-04  1.3699722639900826e-02  2.1337676030628302e-02  1.3410779816413448e-02  2.4837595417682306e-04  9.2190189514781348e-03  3.4206660168049054e-02  1.3882705299710276e-02  2.5333404453479594e-02  7.0668650936356551e-03  3.5045333561107067e-03  1.3267407664698161e-02  1.4211434656881657e-02  4.0764056924595714e-03  5.1751518767205941e-02  4.0399371571808743e-02  5.3214851529626798e-04  1.0721212224749663e-03  5.4297127531053270e-03  0.0000000000000000e+00  0.0000000000000000e+00  1.7066569746529362e-03  7.2592680523376283e-03  8.0966317501620123e-03  4.4828763990146800e-03  4.0611821187658801e-04  9.7185324040998337e-03  9.1813765564556921e-03  0.0000000000000000e+00  1.2657582825353860e-03  1.3869186231362213e-02  9.8392386265491200e-03  1.6240766972015427e-02  2.6056350816912634e-03  7.1855345606268916e-04  1.2176552287521883e-02  1.9841154556440751e-02  1.2567317243457634e-02  0.0000000000000000e+00  8.1940247443682054e-03  3.2055253762714155e-02  1.0692396699457457e-02  2.3763365781545184e-02  5.8316403943589100e-03  3.2732248468230569e-03  1.2336895810992945e-02  1.1727403213272099e-02  0.0000000000000000e+00  4.8335781080320557e-02  1.2103956943117188e-03  4.9895141913835854e-04  1.0030321931716944e-03  5.0654045444762739e-03  5.4297127531053270e-03  1.2304415008521272e-03  1.5921483121413690e-03  6.7914704071884401e-03  7.5915384255744794e-03  4.0692010714507600e-03  2.7654520349164937e-04  9.0922562368380422e-03  8.3341283576620975e-03  1.1153669330204723e-02  1.1657804987009676e-03  1.2938629013910770e-02  8.4857654409332475e-03  1.5227616907041490e-02  2.4308092129730575e-03  4.8929721917240546e-04  1.0501561199294697e-02  1.8273971715420188e-02  1.1788457295481452e-02  3.4045125954397714e-03  7.0668650936356560e-03  3.0068628232831227e-02  7.2809613915158769e-03  2.2280932370176299e-02  4.4915030002378054e-03  3.0622935429577090e-03  1.1362447909211423e-02  9.0323928012369659e-03  5.5473532069474835e-02  6.1084736136042734e-05  1.0758207919809894e-03  4.6659172579435298e-04  9.3994711340812491e-04  4.7310743911967504e-03  5.0654045444762739e-03  1.1478846586431325e-03  1.4870622949105388e-03  6.3643251417960789e-03  7.0991861723530003e-03  3.6167768441273309e-03  1.4037925436494262e-04  8.5204044918626379e-03  7.4075185597134137e-03  1.0405310535164636e-02  1.0582034462143656e-03  1.2084645134940066e-02  7.0025296742918840e-03  1.4240023737504447e-02  2.2703693488653059e-03  2.4837595417682339e-04  8.6659823956159072e-03  1.6587667975943500e-02  1.1053056295304590e-02  3.1760857998988155e-03  5.8316403943589100e-03  2.8192852741423538e-02  3.6959452498036092e-03  2.0835893612369906e-02  3.0584779870979299e-03  2.8696925140654257e-03  1.0313932638568642e-02  6.1505857954324925e-03  5.3214851529626852e-04  0.0000000000000000e+00  9.2783224838114873e-04  4.3386723713273944e-04  8.8169385651429353e-04  4.4261971717207754e-03  4.7310743911967504e-03  1.0721212224749654e-03  1.3912338677559187e-03  5.9698958572625563e-03  6.6012835637965827e-03  3.1192576088814204e-03  0.0000000000000000e+00  7.9923521103790023e-03  6.3885497021565606e-03  9.7185324040998215e-03  9.4054966894996578e-04  1.1305893269623819e-02  5.3933166166693757e-03  1.3241297292997251e-02  2.1240634916685768e-03  0.0000000000000000e+00  6.6745003631513890e-03  1.4743408443091698e-02  1.0336205919675325e-02  2.9664557016538433e-03  4.4915030002378063e-03  2.6364394029389709e-02  0.0000000000000000e+00  1.9374564731940717e-02  1.5525377186061471e-03  2.6918432150532449e-03  9.1672031153193292e-03  7.6690663348615742e-05  4.9895141913835887e-04  2.4781530860177757e-03  7.6565548473838156e-04  3.9959759383243523e-04  8.2669102385535525e-04  4.1478142807944681e-03  4.4261971717207754e-03  1.0030321931716938e-03  1.3037330875071453e-03  5.5974749989314669e-03  6.0798714503802901e-03  2.5740393273880873e-03  2.1665560677345107e-03  7.4937640773213385e-03  5.2718884556064187e-03  9.0922562368380300e-03  8.1116884945965303e-04  1.0594816213904099e-02  3.6725657644355162e-03  1.2195413906957043e-02  1.9904718525297705e-03  1.6451296535883571e-02  4.5449847043394689e-03  1.2715323877842574e-02  9.6112743901959601e-03  2.7752930414974676e-03  3.0584779870979299e-03  2.4515322848334666e-02  4.1962057212961493e-02  1.7844236176020909e-02  0.0000000000000000e+00  2.5239175787252215e-03  1.8961804961460337e-04  5.9066801316099039e-05  4.6659172579435331e-04  2.3118806601036489e-03  5.8970438406619652e-04  3.6272312958026006e-04  7.7307564769629256e-04  3.8907533383219419e-03  4.1478142807944681e-03  9.3994711340812426e-04  1.2229341815004353e-03  5.2344485247730037e-03  5.5188270249003912e-03  1.9825134233031989e-03  2.0211903373872917e-03  7.0077530184627203e-03  4.0603845940466897e-03  8.5204044918626258e-03  6.6938380264464699e-04  9.9382020897182590e-03  1.8642595753183659e-03  1.1070033371404714e-02  1.8671122863251012e-03  1.5347491851706599e-02  2.3071149158965971e-03  1.0492799193260800e-02  8.8521137142479993e-03  2.6007427288733762e-03  1.5525377186061473e-03  2.2578943934461547e-02  3.9146600375967511e-02  1.6197588000116288e-02  3.4045125954397662e-03  5.9066801316099039e-05  1.7786646402181839e-04  4.0221393948531498e-05  4.3386723713273977e-04  2.159290396350818