<?xml version="1.0"?>
<VTKFile type="UnstructuredGrid"  version="0.1"  >
<UnstructuredGrid>
<Piece  NumberOfPoints="1089" NumberOfCells="2048">
<Points>
<DataArray  type="Float64"  NumberOfComponents="3"  format="ascii">0 0 0  0.03125 0 0  0.0625 0 0  0.09375 0 0  0.125 0 0  0.15625 0 0  0.1875 0 0  0.21875 0 0  0.25 0 0  0.28125 0 0  0.3125 0 0  0.34375 0 0  0.375 0 0  0.40625 0 0  0.4375 0 0  0.46875 0 0  0.5 0 0  0.53125 0 0  0.5625 0 0  0.59375 0 0  0.625 0 0  0.65625 0 0  0.6875 0 0  0.71875 0 0  0.75 0 0  0.78125 0 0  0.8125 0 0  0.84375 0 0  0.875 0 0  0.90625 0 0  0.9375 0 0  0.96875 0 0  1 0 0  0 0.03125 0  0.03125 0.03125 0  0.0625 0.03125 0  0.09375 0.03125 0  0.125 0.03125 0  0.15625 0.03125 0  0.1875 0.03125 0  0.21875 0.03125 0  0.25 0.03125 0  0.28125 0.03125 0  0.3125 0.03125 0  0.34375 0.03125 0  0.375 0.03125 0  0.40625 0.03125 0  0.4375 0.03125 0  0.46875 0.03125 0  0.5 0.03125 0  0.53125 0.03125 0  0.5625 0.03125 0  0.59375 0.03125 0  0.625 0.03125 0  0.65625 0.03125 0  0.6875 0.03125 0  0.71875 0.03125 0  0.75 0.03125 0  0.78125 0.03125 0  0.8125 0.03125 0  0.84375 0.03125 0  0.875 0.03125 0  0.90625 0.03125 0  0.9375 0.03125 0  0.96875 0.03125 0  1 0.03125 0  0 0.0625 0  0.03125 0.0625 0  0.0625 0.0625 0  0.09375 0.0625 0  0.125 0.0625 0  0.15625 0.0625 0  0.1875 0.0625 0  0.21875 0.0625 0  0.25 0.0625 0  0.28125 0.0625 0  0.3125 0.0625 0  0.34375 0.0625 0  0.375 0.0625 0  0.40625 0.0625 0  0.4375 0.0625 0  0.46875 0.0625 0  0.5 0.0625 0  0.53125 0.0625 0  0.5625 0.0625 0  0.59375 0.0625 0  0.625 0.0625 0  0.65625 0.0625 0  0.6875 0.0625 0  0.71875 0.0625 0  0.75 0.0625 0  0.78125 0.0625 0  0.8125 0.0625 0  0.84375 0.0625 0  0.875 0.0625 0  0.90625 0.0625 0  0.9375 0.0625 0  0.96875 0.0625 0  1 0.0625 0  0 0.09375 0  0.03125 0.09375 0  0.0625 0.09375 0  0.09375 0.09375 0  0.125 0.09375 0  0.15625 0.09375 0  0.1875 0.09375 0  0.21875 0.09375 0  0.25 0.09375 0  0.28125 0.09375 0  0.3125 0.09375 0  0.34375 0.09375 0  0.375 0.09375 0  0.40625 0.09375 0  0.4375 0.09375 0  0.46875 0.09375 0  0.5 0.09375 0  0.53125 0.09375 0  0.5625 0.09375 0  0.59375 0.09375 0  0.625 0.09375 0  0.65625 0.09375 0  0.6875 0.09375 0  0.71875 0.09375 0  0.75 0.09375 0  0.78125 0.09375 0  0.8125 0.09375 0  0.84375 0.09375 0  0.875 0.09375 0  0.90625 0.09375 0  0.9375 0.09375 0  0.96875 0.09375 0  1 0.09375 0  0 0.125 0  0.03125 0.125 0  0.0625 0.125 0  0.09375 0.125 0  0.125 0.125 0  0.15625 0.125 0  0.1875 0.125 0  0.21875 0.125 0  0.25 0.125 0  0.28125 0.125 0  0.3125 0.125 0  0.34375 0.125 0  0.375 0.125 0  0.40625 0.125 0  0.4375 0.125 0  0.46875 0.125 0  0.5 0.125 0  0.53125 0.125 0  0.5625 0.125 0  0.59375 0.125 0  0.625 0.125 0  0.65625 0.125 0  0.6875 0.125 0  0.71875 0.125 0  0.75 0.125 0  0.78125 0.125 0  0.8125 0.125 0  0.84375 0.125 0  0.875 0.125 0  0.90625 0.125 0  0.9375 0.125 0  0.96875 0.125 0  1 0.125 0  0 0.15625 0  0.03125 0.15625 0  0.0625 0.15625 0  0.09375 0.15625 0  0.125 0.15625 0  0.15625 0.15625 0  0.1875 0.15625 0  0.21875 0.15625 0  0.25 0.15625 0  0.28125 0.15625 0  0.3125 0.15625 0  0.34375 0.15625 0  0.375 0.15625 0  0.40625 0.15625 0  0.4375 0.15625 0  0.46875 0.15625 0  0.5 0.15625 0  0.53125 0.15625 0  0.5625 0.15625 0  0.59375 0.15625 0  0.625 0.15625 0  0.65625 0.15625 0  0.6875 0.15625 0  0.71875 0.15625 0  0.75 0.15625 0  0.78125 0.15625 0  0.8125 0.15625 0  0.84375 0.15625 0  0.875 0.15625 0  0.90625 0.15625 0  0.9375 0.15625 0  0.96875 0.15625 0  1 0.15625 0  0 0.1875 0  0.03125 0.1875 0  0.0625 0.1875 0  0.09375 0.1875 0  0.125 0.1875 0  0.15625 0.1875 0  0.1875 0.1875 0  0.21875 0.1875 0  0.25 0.1875 0  0.28125 0.1875 0  0.3125 0.1875 0  0.34375 0.1875 0  0.375 0.1875 0  0.40625 0.1875 0  0.4375 0.1875 0  0.46875 0.1875 0  0.5 0.1875 0  0.53125 0.1875 0  0.5625 0.1875 0  0.59375 0.1875 0  0.625 0.1875 0  0.65625 0.1875 0  0.6875 0.1875 0  0.71875 0.1875 0  0.75 0.1875 0  0.78125 0.1875 0  0.8125 0.1875 0  0.84375 0.1875 0  0.875 0.1875 0  0.90625 0.1875 0  0.9375 0.1875 0  0.96875 0.1875 0  1 0.1875 0  0 0.21875 0  0.03125 0.21875 0  0.0625 0.21875 0  0.09375 0.21875 0  0.125 0.21875 0  0.15625 0.21875 0  0.1875 0.21875 0  0.21875 0.21875 0  0.25 0.21875 0  0.28125 0.21875 0  0.3125 0.21875 0  0.34375 0.21875 0  0.375 0.21875 0  0.40625 0.21875 0  0.4375 0.21875 0  0.46875 0.21875 0  0.5 0.21875 0  0.53125 0.21875 0  0.5625 0.21875 0  0.59375 0.21875 0  0.625 0.21875 0  0.65625 0.21875 0  0.6875 0.21875 0  0.71875 0.21875 0  0.75 0.21875 0  0.78125 0.21875 0  0.8125 0.21875 0  0.84375 0.21875 0  0.875 0.21875 0  0.90625 0.21875 0  0.9375 0.21875 0  0.96875 0.21875 0  1 0.21875 0  0 0.25 0  0.03125 0.25 0  0.0625 0.25 0  0.09375 0.25 0  0.125 0.25 0  0.15625 0.25 0  0.1875 0.25 0  0.21875 0.25 0  0.25 0.25 0  0.28125 0.25 0  0.3125 0.25 0  0.34375 0.25 0  0.375 0.25 0  0.40625 0.25 0  0.4375 0.25 0  0.46875 0.25 0  0.5 0.25 0  0.53125 0.25 0  0.5625 0.25 0  0.59375 0.25 0  0.625 0.25 0  0.65625 0.25 0  0.6875 0.25 0  0.71875 0.25 0  0.75 0.25 0  0.78125 0.25 0  0.8125 0.25 0  0.84375 0.25 0  0.875 0.25 0  0.90625 0.25 0  0.9375 0.25 0  0.96875 0.25 0  1 0.25 0  0 0.28125 0  0.03125 0.28125 0  0.0625 0.28125 0  0.09375 0.28125 0  0.125 0.28125 0  0.15625 0.28125 0  0.1875 0.28125 0  0.21875 0.28125 0  0.25 0.28125 0  0.28125 0.28125 0  0.3125 0.28125 0  0.34375 0.28125 0  0.375 0.28125 0  0.40625 0.28125 0  0.4375 0.28125 0  0.46875 0.28125 0  0.5 0.28125 0  0.53125 0.28125 0  0.5625 0.28125 0  0.59375 0.28125 0  0.625 0.28125 0  0.65625 0.28125 0  0.6875 0.28125 0  0.71875 0.28125 0  0.75 0.28125 0  0.78125 0.28125 0  0.8125 0.28125 0  0.84375 0.28125 0  0.875 0.28125 0  0.90625 0.28125 0  0.9375 0.28125 0  0.96875 0.28125 0  1 0.28125 0  0 0.3125 0  0.03125 0.3125 0  0.0625 0.3125 0  0.09375 0.3125 0  0.125 0.3125 0  0.15625 0.3125 0  0.1875 0.3125 0  0.21875 0.3125 0  0.25 0.3125 0  0.28125 0.3125 0  0.3125 0.3125 0  0.34375 0.3125 0  0.375 0.3125 0  0.40625 0.3125 0  0.4375 0.3125 0  0.46875 0.3125 0  0.5 0.3125 0  0.53125 0.3125 0  0.5625 0.3125 0  0.59375 0.3125 0  0.625 0.3125 0  0.65625 0.3125 0  0.6875 0.3125 0  0.71875 0.3125 0  0.75 0.3125 0  0.78125 0.3125 0  0.8125 0.3125 0  0.84375 0.3125 0  0.875 0.3125 0  0.90625 0.3125 0  0.9375 0.3125 0  0.96875 0.3125 0  1 0.3125 0  0 0.34375 0  0.03125 0.34375 0  0.0625 0.34375 0  0.09375 0.34375 0  0.125 0.34375 0  0.15625 0.34375 0  0.1875 0.34375 0  0.21875 0.34375 0  0.25 0.34375 0  0.28125 0.34375 0  0.3125 0.34375 0  0.34375 0.34375 0  0.375 0.34375 0  0.40625 0.34375 0  0.4375 0.34375 0  0.46875 0.34375 0  0.5 0.34375 0  0.53125 0.34375 0  0.5625 0.34375 0  0.59375 0.34375 0  0.625 0.34375 0  0.65625 0.34375 0  0.6875 0.34375 0  0.71875 0.34375 0  0.75 0.34375 0  0.78125 0.34375 0  0.8125 0.34375 0  0.84375 0.34375 0  0.875 0.34375 0  0.90625 0.34375 0  0.9375 0.34375 0  0.96875 0.34375 0  1 0.34375 0  0 0.375 0  0.03125 0.375 0  0.0625 0.375 0  0.09375 0.375 0  0.125 0.375 0  0.15625 0.375 0  0.1875 0.375 0  0.21875 0.375 0  0.25 0.375 0  0.28125 0.375 0  0.3125 0.375 0  0.34375 0.375 0  0.375 0.375 0  0.40625 0.375 0  0.4375 0.375 0  0.46875 0.375 0  0.5 0.375 0  0.53125 0.375 0  0.5625 0.375 0  0.59375 0.375 0  0.625 0.375 0  0.65625 0.375 0  0.6875 0.375 0  0.71875 0.375 0  0.75 0.375 0  0.78125 0.375 0  0.8125 0.375 0  0.84375 0.375 0  0.875 0.375 0  0.90625 0.375 0  0.9375 0.375 0  0.96875 0.375 0  1 0.375 0  0 0.40625 0  0.03125 0.40625 0  0.0625 0.40625 0  0.09375 0.40625 0  0.125 0.40625 0  0.15625 0.40625 0  0.1875 0.40625 0  0.21875 0.40625 0  0.25 0.40625 0  0.28125 0.40625 0  0.3125 0.40625 0  0.34375 0.40625 0  0.375 0.40625 0  0.40625 0.40625 0  0.4375 0.40625 0  0.46875 0.40625 0  0.5 0.40625 0  0.53125 0.40625 0  0.5625 0.40625 0  0.59375 0.40625 0  0.625 0.40625 0  0.65625 0.40625 0  0.6875 0.40625 0  0.71875 0.40625 0  0.75 0.40625 0  0.78125 0.40625 0  0.8125 0.40625 0  0.84375 0.40625 0  0.875 0.40625 0  0.90625 0.40625 0  0.9375 0.40625 0  0.96875 0.40625 0  1 0.40625 0  0 0.4375 0  0.03125 0.4375 0  0.0625 0.4375 0  0.09375 0.4375 0  0.125 0.4375 0  0.15625 0.4375 0  0.1875 0.4375 0  0.21875 0.4375 0  0.25 0.4375 0  0.28125 0.4375 0  0.3125 0.4375 0  0.34375 0.4375 0  0.375 0.4375 0  0.40625 0.4375 0  0.4375 0.4375 0  0.46875 0.4375 0  0.5 0.4375 0  0.53125 0.4375 0  0.5625 0.4375 0  0.59375 0.4375 0  0.625 0.4375 0  0.65625 0.4375 0  0.6875 0.4375 0  0.71875 0.4375 0  0.75 0.4375 0  0.78125 0.4375 0  0.8125 0.4375 0  0.84375 0.4375 0  0.875 0.4375 0  0.90625 0.4375 0  0.9375 0.4375 0  0.96875 0.4375 0  1 0.4375 0  0 0.46875 0  0.03125 0.46875 0  0.0625 0.46875 0  0.09375 0.46875 0  0.125 0.46875 0  0.15625 0.46875 0  0.1875 0.46875 0  0.21875 0.46875 0  0.25 0.46875 0  0.28125 0.46875 0  0.3125 0.46875 0  0.34375 0.46875 0  0.375 0.46875 0  0.40625 0.46875 0  0.4375 0.46875 0  0.46875 0.46875 0  0.5 0.46875 0  0.53125 0.46875 0  0.5625 0.46875 0  0.59375 0.46875 0  0.625 0.46875 0  0.65625 0.46875 0  0.6875 0.46875 0  0.71875 0.46875 0  0.75 0.46875 0  0.78125 0.46875 0  0.8125 0.46875 0  0.84375 0.46875 0  0.875 0.46875 0  0.90625 0.46875 0  0.9375 0.46875 0  0.96875 0.46875 0  1 0.46875 0  0 0.5 0  0.03125 0.5 0  0.0625 0.5 0  0.09375 0.5 0  0.125 0.5 0  0.15625 0.5 0  0.1875 0.5 0  0.21875 0.5 0  0.25 0.5 0  0.28125 0.5 0  0.3125 0.5 0  0.34375 0.5 0  0.375 0.5 0  0.40625 0.5 0  0.4375 0.5 0  0.46875 0.5 0  0.5 0.5 0  0.53125 0.5 0  0.5625 0.5 0  0.59375 0.5 0  0.625 0.5 0  0.65625 0.5 0  0.6875 0.5 0  0.71875 0.5 0  0.75 0.5 0  0.78125 0.5 0  0.8125 0.5 0  0.84375 0.5 0  0.875 0.5 0  0.90625 0.5 0  0.9375 0.5 0  0.96875 0.5 0  1 0.5 0  0 0.53125 0  0.03125 0.53125 0  0.0625 0.53125 0  0.09375 0.53125 0  0.125 0.53125 0  0.15625 0.53125 0  0.1875 0.53125 0  0.21875 0.53125 0  0.25 0.53125 0  0.28125 0.53125 0  0.3125 0.53125 0  0.34375 0.53125 0  0.375 0.53125 0  0.40625 0.53125 0  0.4375 0.53125 0  0.46875 0.53125 0  0.5 0.53125 0  0.53125 0.53125 0  0.5625 0.53125 0  0.59375 0.53125 0  0.625 0.53125 0  0.65625 0.53125 0  0.6875 0.53125 0  0.71875 0.53125 0  0.75 0.53125 0  0.78125 0.531
[...]
<PointData  Scalars="theta_dt"> 
<DataArray  type="Float64"  Name="theta_dt"  format="ascii">-7.1415314063037610e-02  -1.6648371593475825e-01  -1.9584332832975662e-01  -1.1240203774254538e-01  -1.4779037974579938e-02  -2.3155136992465958e-01  -2.1709301125286465e-01  -2.7010121932497455e-01  -1.5776009781885414e-01  -1.5364919416310069e-01  -1.8415290879012402e-02  -1.0045489624418029e-01  -2.5934067959822005e-01  -4.0342752528460840e-01  -3.8733082824626153e-01  -3.1899985172187661e-01  -2.4432413153299182e-01  -1.4744202851400348e-01  -1.7189762239446169e-01  -2.5666518957608218e-02  -1.9373160683218142e-02  -1.1350806511048998e-01  -1.8848894027476448e-01  -2.0163701961958319e-01  -3.6482500465151518e-01  -2.9322695779779612e-01  -4.5719626200287150e-01  -2.8424814888660976e-01  -4.4738403210268529e-01  -4.7794804339201669e-01  -3.3555994026716457e-01  -2.9714995044579884e-01  -3.2563456697487020e-01  -1.4819153637952168e-02  -7.3570991832835803e-02  -1.5508614001234178e-01  -1.8054368765054951e-01  -1.2120933592966643e-01  -1.5225144584048637e-02  -2.1346215142107883e-01  -2.3865282486133557e-01  -2.4665469973943907e-01  -1.7156953736206987e-01  -1.5685834955812872e-01  -1.7154568923423791e-02  -1.0924815788437572e-01  -2.7966140280880653e-01  -4.1185361320730590e-01  -3.5707183220750277e-01  -2.9130861696968952e-01  -2.2311522862791158e-01  -1.3592358631576129e-01  -1.7548791901335645e-01  -2.7677627389670820e-02  -2.1068979175439765e-02  -1.0573723429595930e-01  -1.9242576729738967e-01  -2.1928720030917742e-01  -3.3315585247873997e-01  -3.2234774118283044e-01  -4.2147924989846786e-01  -2.9282820519106395e-01  -4.8243895329468317e-01  -4.4060986399325042e-01  -3.1258730372885418e-01  -3.0611944880727382e-01  -1.8449920927890623e-01  -1.6301130501699707e-02  -7.8261143356756116e-02  -1.4854071139363004e-01  -1.6487133667367274e-01  -1.2859411205620003e-01  -1.6195747715715445e-02  -1.9493226648915221e-01  -2.6251909776417626e-01  -2.2457742277985399e-01  -1.8860835047295946e-01  -2.3771204647921384e-02  -1.6430558342180972e-02  -1.2009774676548661e-01  -2.9669999835208832e-01  -3.8733082824626214e-01  -3.2607570516957424e-01  -2.6523451003255255e-01  -2.0314489479067646e-01  -1.2412454654595438e-01  -2.6229448715216847e-02  -2.9363909064416858e-02  -2.3161369258942490e-02  -1.0127458199595921e-01  -2.9595143997723866e-01  -2.4106492193229542e-01  -3.0333613270997117e-01  -3.5458385305434792e-01  -3.8489214558128476e-01  -3.1149600643457986e-01  -5.1183193393825110e-01  -4.0236209957546637e-01  -2.9939452013445966e-01  -1.2566494521866339e-01  -1.8835270578476684e-01  -1.7802772696774067e-02  -8.5111687586317930e-02  -1.4742709722936104e-01  -1.5011422818846321e-01  -1.3391984832872555e-01  -1.7613433188972141e-02  -1.7748449987377102e-01  -2.8670206802960885e-01  -2.0570385828712454e-01  -2.0746996825082456e-01  -2.1914154460269748e-02  -1.6307377953955853e-02  -1.3210801985145049e-01  -3.0898785444453059e-01  -3.5707183220750316e-01  -2.9688970684711991e-01  -2.4294410982743481e-01  -1.8607252738284946e-01  -1.1301455352951158e-01  -2.4180355983904576e-02  -3.0580017897915857e-02  -2.5477602305245487e-02  -1.0051532342009141e-01  -2.7283116966340082e-01  -2.6517241455251067e-01  -2.7784365892159391e-01  -3.8724772721834771e-01  -3.5044167491705885e-01  -3.3876263043065957e-01  -5.3302949774910846e-01  -3.6634794894403011e-01  -7.8878889465412994e-02  -1.1706184703651271e-01  -9.6838315313460696e-02  -1.9197714735611125e-02  -9.3564249507466418e-02  -1.5187719760814930e-01  -1.3749857639265223e-01  -1.3671693168543525e-01  -1.9362648119328335e-02  -1.6256864095365545e-01  -3.0916670172054472e-01  -1.9162124768945926e-01  -2.2658187331186871e-01  -2.0011865188724599e-02  -1.6799617645123634e-02  -1.4427766519573967e-01  -3.1544145184534883e-01  -3.2607570516957463e-01  -2.7193899292384460e-01  -2.2631200907743013e-01  -1.7333388957665691e-01  -1.0351677125801789e-01  -2.2081345873625469e-02  -3.1218719779508405e-02  -2.7824570980018760e-02  -1.0354938762695759e-01  -2.4914767286525835e-01  -2.8959980543931346e-01  -2.5882231392493471e-01  -4.1759064870264351e-01  -3.2099043502563479e-01  -3.7240562578758157e-01  -5.4416248479617901e-01  -1.6771942545832828e-02  -8.6767105761819174e-02  -1.1212123813560716e-01  -8.9273128176827449e-02  -2.0367350922264337e-02  -1.0292106275278264e-01  -1.6155937059596390e-01  -1.2808534066049465e-01  -2.1083810436969320e-02  -2.1298993286858067e-02  -1.5143909343322734e-01  -3.2800293129373387e-01  -1.8353385059207836e-01  -2.4433576961244063e-01  -1.8220666842550488e-02  -1.7870593451438484e-02  -1.5558258852845541e-01  -3.4603255040869907e-01  -2.9688970684712018e-01  -2.5332188493395802e-01  -2.1676048435152170e-01  -1.6601831256031355e-01  -9.6429950465772740e-02  -2.0104914899444139e-02  -2.8434832115282822e-02  -3.0004774279455779e-02  -1.1015066220652397e-01  -2.2684725781744822e-01  -3.1229149228647141e-01  -2.4789868799298079e-01  -4.4303269431365466e-01  -2.9901523563131183e-01  -4.0964773386136522e-01  -5.7704121824249534e-02  -1.5316030275717485e-02  -9.4759996018285830e-02  -1.1128066185364559e-01  -8.1523647617313150e-02  -2.1210866522220845e-02  -1.1240203774254548e-01  -1.7570137729937427e-01  -1.2267948392610228e-01  -1.9436704423273502e-02  -2.3261033099300322e-02  -1.4504758884054908e-01  -3.4158720106125096e-01  -1.8215789181468595e-01  -2.5922212258560734e-01  -1.6689395682267748e-02  -1.9434885584119536e-02  -1.6506158267240423e-01  -3.1899985172187656e-01  -2.7193899292384488e-01  -2.4263040524879201e-01  -2.1513542450521489e-01  -1.6477366829639015e-01  -9.2360113164841828e-02  -1.8415290879012405e-02  -2.6213450780275632e-02  -3.1832839247236219e-02  -1.1979263715086490e-01  -2.0778293560099229e-01  -3.3131810223419766e-01  -2.4604018410093234e-01  -4.6138093166521998e-01  -2.8639526275316657e-01  -1.0029829934919460e-01  -6.3434799674225245e-02  -1.3945141163628366e-02  -1.0218494629414326e-01  -1.1463967878318800e-01  -7.4226725445936143e-02  -2.1653881971171057e-02  -1.2120933592966653e-01  -1.9315052927098650e-01  -1.2175975215907656e-01  -1.7749473717401570e-02  -2.5083658905384672e-02  -1.4396016272073031e-01  -3.4872167654697722e-01  -1.8765634439632162e-01  -2.6995782921183209e-01  -1.5546829556086147e-02  -2.1364991524782544e-02  -1.7189762239446169e-01  -2.9130861696968940e-01  -2.5332188493395835e-01  -2.4081139783033867e-01  -2.2162930691946317e-01  -1.6974737650526384e-01  -9.1667686628918651e-02  -1.7154568923423791e-02  -2.3937954991473876e-02  -3.3151199037787030e-02  -1.3168941316283686e-01  -1.9355799011249208e-01  -3.4503967009293318e-01  -2.5346692950283961e-01  -4.7101744888928548e-01  -7.6206465447084010e-02  -9.1320917869552362e-02  -6.9778542898055726e-02  -1.2773186664132869e-02  -1.0841064620493217e-01  -1.2194795954374080e-01  -6.7988685698008006e-02  -2.1083810436969351e-02  -1.2859411205620011e-01  -2.1246638377883872e-01  -1.2543508138543513e-01  -1.6160774829604558e-02  -2.6611900967184961e-02  -1.4830561336510720e-01  -3.1373652610832298e-01  -1.9961943837830190e-01  -2.7559623577012210e-01  -1.4890673802267381e-02  -2.3501579342645625e-02  -1.7548791901335645e-01  -2.6523451003255250e-01  -2.4263040524879240e-01  -2.4808031184167609e-01  -2.3575817762920651e-01  -1.8056877359076987e-01  -9.4434684112124509e-02  -1.6430558342180962e-02  -2.1795344845585162e-02  -3.3843603250013690e-02  -1.4485890099431489e-01  -1.8538885257536705e-01  -3.5224625470802740e-01  -2.6962544899612390e-01  -9.4050509438543661e-03  -8.2177647806929807e-02  -8.3646276262164351e-02  -7.6206465447083899e-02  -1.1898726576800940e-02  -1.1290048249362017e-01  -1.3262260413398108e-01  -6.3334139139160014e-02  -1.9436704423273516e-02  -1.3391984832872564e-01  -2.3203855313751609e-01  -1.3343156917847307e-01  -1.4802617708449902e-02  -2.7714035147324203e-02  -1.5776009781885422e-01  -2.8922685218510513e-01  -2.1709301125286418e-01  -1.3178977435163999e-01  -1.4779037974579912e-02  -2.5666518957608214e-02  -2.6502865723731517e-01  -2.4294410982743481e-01  -2.4081139783033889e-01  -2.6389543440088492e-01  -2.5639513428555649e-01  -1.9637475746609370e-01  -1.0045489624418029e-01  -1.6307377953955857e-02  -1.9963656506247218e-02  -1.6167292670745800e-01  -1.5820314347139219e-01  -1.8399898679252180e-01  -3.9574102035161463e-01  -1.0031799954536361e-02  -9.6889432645629256e-03  -8.7184386990877188e-02  -7.7919801579805326e-02  -8.2177647806929710e-02  -1.1396539434508138e-02  -1.1525855013249803e-01  -1.4579354229038355e-01  -6.0661114413482133e-02  -1.7749473717401591e-02  -1.3671693168543533e-01  -2.5022000935872035e-01  -1.4511142494176166e-01  -1.3789221543934449e-02  -2.8292877398306802e-02  -1.7156953736206992e-01  -2.6412010490211058e-01  -2.3865282486133502e-01  -1.2149411501021590e-01  -1.5225144584048627e-02  -2.7677627389670813e-02  -2.4432413153299182e-01  -2.2631200907743004e-01  -2.4808031184167642e-01  -2.8699536966635453e-01  -2.8185809724974331e-01  -2.1587701202483786e-01  -1.0924815788437572e-01  -1.6799617645123641e-02  -1.8596932502992974e-02  -1.4904274059248865e-01  -1.7059920217883193e-01  -1.8955301299401567e-01  -9.1979778929245928e-02  -9.1338854763876928e-03  -1.0306613502320761e-02  -9.0795135918419784e-02  -7.4631187270465957e-02  -8.7184386990877064e-02  -1.1311099236875810e-02  -1.5825080822169674e-01  -1.6037350156719440e-01  -6.0206336221043190e-02  -1.6160774829604579e-02  -1.9584332832975698e-01  -2.6546486436366412e-01  -1.5952264553402623e-01  -1.3207245841165376e-02  -1.3178977435164005e-01  -1.8860835047295957e-01  -2.4047955512674274e-01  -2.6251909776417581e-01  -1.1094764597081849e-01  -1.6195747715715417e-02  -2.9363909064416851e-02  -2.2311522862791158e-01  -2.1676048435152170e-01  -2.6389543440088542e-01  -3.1549728523144699e-01  -3.1004507669466019e-01  -2.3746560912369144e-01  -1.2009774676548661e-01  -1.7870593451438491e-02  -1.7812046798727877e-02  -1.3610487402114535e-01  -1.8099309556825663e-01  -5.6922499920689221e-02  -9.3900891535088446e-02  -8.3662705733669514e-03  -1.1208796994999718e-02  -9.2691505774844807e-02  -7.4071675023211658e-02  -9.0795135918419659e-02  -1.1652525799186967e-02  -1.4588796429111683e-01  -1.7514693196823394e-01  -6.2023669972150593e-02  -1.4802617708449926e-02  -1.8054368765054987e-01  -2.7645911468054302e-01  -1.7547557211141035e-01  -1.3108230723345384e-02  -1.2149411501021588e-01  -2.0746996825082467e-01  -2.2026956991680230e-01  -2.8670206802960818e-01  -1.0101707537678847e-01  -1.7613433188972117e-02  -3.0580017897915854e-02  -2.0314489479067646e-01  -2.1513542450521483e-01  -2.8699536966635497e-01  -3.4704832307821926e-01  -3.3860608781540552e-01  -2.5934067959822005e-01  -1.3210801985145049e-01  -1.9434885584119536e-02  -1.7678509350148398e-02  -1.2392256003122934e-01  -9.7063522411006669e-03  -6.1382680896288420e-02  -5.8170950056672076e-02  -7.7935106279750765e-03  -1.2321958457880275e-02  -1.1913988911995754e-01  -7.6307535290917106e-02  -9.2691505774844682e-02  -1.2395374444734042e-02  -1.3322395255287270e-01  -1.8887062672843810e-01  -6.5977679602739522e-02  -1.3789221543934454e-02  -1.6487133667367304e-01  -2.8223330870879132e-01  -1.9164018862434684e-01  -1.3503903863517521e-02  -1.1094764597081851e-01  -2.2658187331186880e-01  -2.0518978188811227e-01  -3.0916670172054406e-01  -9.2527565329914116e-02  -1.9362648119328304e-02  -3.1218719779508398e-02  -1.8607252738284946e-01  -2.2162930691946309e-01  -3.1549728523144754e-01  -3.7901803251706567e-01  -3.6513767784044993e-01  -2.7966140280880653e-01  -1.4427766519573967e-01  -2.1364991524782547e-02  -1.8212136767590623e-02  -6.3657567891588548e-03  -1.0677027746876918e-02  -6.5122470022173681e-02  -5.3626528546756584e-02  -7.4645846033765950e-03  -1.3554205440182314e-02  -1.0983246205751129e-01  -8.1172141489845154e-02  -1.5127465745404370e-02  -1.3480396426696952e-02  -1.2129950067229842e-01  -2.0037772133109266e-01  -7.1752997888367462e-02  -1.3207245841165390e-02  -1.5011422818846343e-01  -2.3712772813196273e-01  -2.0665621786855592e-01  -1.4364777880660814e-02  -1.0101707537678850e-01  -2.4433576961244075e-01  -1.9652972322309689e-01  -3.2800293129373326e-01  -8.6193072224430359e-02  -2.1298993286858039e-02  -1.4744202851400348e-01  -1.7333388957665691e-01  -2.3575817762920645e-01  -3.4704832307821976e-01  -4.0871611359918664e-01  -3.8738398408024927e-01  -2.9669999835208832e-01  -1.5558258852845541e-01  -2.3501579342645632e-02  -2.8090917607481215e-02  -6.9979490880222447e-03  -1.1660583788037276e-02  -6.7819522750388578e-02  -4.8971401646485169e-02  -7.4086223889323986e-03  -1.4802803922818962e-02  -1.0029829934919476e-01  -8.8277498268873419e-02  -1.3945680324039393e-02  -1.4819153637952179e-02  -1.1110544856974724e-01  -2.0867638199008631e-01  -7.8878889465412924e-02  -1.3108230723345406e-02  -1.3749857639265242e-01  -2.1860287427844255e-01  -2.1924691389382731e-01  -1.5622190461137804e-02  -9.2527565329914158e-02  -2.5922212258560745e-01  -1.9505633399917469e-01  -3.4158720106125023e-01  -8.2555283563060730e-02  -2.3261033099300287e-02  -1.3592358631576129e-01  -1.6601831256031355e-01  -2.5639513428555649e-01  -3.7901803251706617e-01  -4.3361747103248088e-01  -4.0342752528460846e-01  -3.0898785444453059e-01  -1.6506158267240423e-01  -3.0880666315710164e-02  -3.0880666315710157e-02  -7.6977730385326334e-03  -1.2574252619312224e-02  -6.9236018219226536e-02  -4.4588127383352723e-02  -7.6322523315880235e-03  -1.5962682433672725e-02  -9.1320917869552459e-02  -9.7044461320863029e-02  -1.2735105756222284e-02  -1.6301130501699714e-02  -1.0349910233727801e-01  -2.1303484895586519e-01  -8.6767105761819119e-02  -1.3503903863517542e-02  -1.2808534066049490e-01  -1.9962674160479815e-01  -2.2832704379474630e-01  -1.7173652263405836e-02  -8.6193072224430387e-02  -2.6995782921183215e-01  -2.0094412723479932e-01  -3.4872167654697650e-01  -8.1936364128459144e-02  -2.5083658905384641e-02  -1.2412454654595438e-01  -1.6477366829639015e-01  -2.8185809724974331e-01  -4.0871611359918725e-01  -4.5157577609756200e-01  -4.1185361320730601e-01  -3.1544145184534883e-01  -8.4068834159730897e-03  -3.3968861103014801e-02  -3.3968861103014794e-02  -8.4068834159730862e-03  -1.3340349057675531e-02  -7.8893966063573365e-02  -4.0840925695119504e-02  -8.1188085001561543e-03  -1.6935221679494725e-02  -8.3646276262164435e-02  -1.0674931019050711e-01  -1.1595226981616587e-02  -1.7802772696774077e-02  -9.9130910657509022e-02  -1.5825080822169671e-01  -9.4759996018285761e-02  -1.4364777880660835e-02  -1.2267948392610251e-01  -1.8175878746646471e-01  -2.3309593938457221e-01  -1.8891088760941869e-02  -8.2555283563060744e-02  -2.7559623577012221e-01  -2.1375431751624233e-01  -2.3155136992465944e-01  -8.4409620754256467e-02  -2.6611900967184920e-02  -1.1301455352951158e-01  -1.6974737650526384e-01  -3.1004507669466014e-01  -4.3361747103248149e-01  -4.6100750039667643e-01  -2.6502865723731517e-01  -6.0453413598188848e-03  -9.0656074974566452e-03  -3.7098035189780651e-02  -3.7098035189780651e-02  -9.0656074974566417e-03  -1.3892840767665832e-02  -7.2730624463813412e-02  -3.8044931211585094e-02  -8.8294837386729778e-03  -1.7636595350027387e-02  -7.7919801579805451e-02  -1.1658293911952110e-01  -1.0620760084915659e-02  -1.9197714735611136e-02  -9.8387723249899681e-02  -1.4588796429111681e-01  -1.0218494629414317e-01  -1.5622190461137825e-02  -1.2175975215907676e-01  -1.6648371593475800e-01  -1.1486729031402315e-01  -2.0631315059441074e-02  -8.1936364128459144e-02  -2.9299014807382395e-01  -2.3246517891689422e-01  -2.1346215142107883e-01  -8.9790734988976065e-02  -2.7714035147324161e-02  -1.0351677125801789e-01  -1.8056877359076987e-01  -3.3860608781540541e-01  -4.5157577609756266e-01  -3.4603255040869907e-01  -4.3652451066548215e-03  -6.1716058673896507e-03  -9.6179369142153429e-03  -4.0004863790353590e-02  -4.0004863790353583e-02  -9.6179369142153377e-03  -1.4183010105322712e-02  -6.6417139410984732e-02  -3.6439240454632781e-02  -9.7063522411006582e-03  -1.8004957679721007e-02  -7.4631187270466054e-02  -1.2571783319242422e-01  -9.8936564235039114e-03  -2.0367350922264348e-02  -1.0135756565153994e-01  -1.3322395255287264e-01  -1.0841064620493208e-01  -1.7173652263405861e-02  -1.2543508138543533e-01  -1.5508614001234167e-01  -1.0589364652137072e-01  -2.2247888454107939e-02  -8.4409620754256509e-02  -2.7010121932497499e-01  -2.5555162421047567e-01  -1.9493226648915213e-01  -9.7650515399323803e-02  -2.8292877398306760e-02  -9.6429950465772740e-02  -1.9637475746609370e-01  -3.6513767784044987e-01  -4.6100750039667709e-01  -1.0757698066424166e-02  -3.9745259137187105e-03  -8.5912670034558394e-03  -1.0016264603344009e-02  -4.2442192241980925e-02  -4.2442192241980918e-02  -1.0016264603344004e-02  -5.8170950056672027e-02  -6.0472352698269914e-02  -3.6166054377060067e-02  -1.0677027746876908e-02  -7.7877860278350031e-02  -7.4071675023211769e-02  -1.3337729313516047e-01  -9.4760935007762552e-03  -2.1210866522220852e-02  -1.0781911155650151e-01  -1.2129950067229844e-01  -1.1290048249362007e-01  -1.8891088760941897e-02  -1.3343156917847324e-01  -1.4854071139362979e-01  -9.6701398284387272e-02  -2.3603358923948752e-02  -8.9790734988976106e-02  -2.4665469973943965e-01  -2.8110784717877763e-01  -1.7748449987377091e-01  -1.0734832602266212e-01  -2.6229448715216847e-02  -9.2360113164841828e-02  -2.1587701202483786e-01  -3.8738398408024921e-01  -5.0739953500020529e-03  -1.1082420163921657e-02  -3.6405053775843740e-03  -7.9201014383430933e-03  -1.0225466804272760e-02  -4.4199939304380119e-02  -4.4199939304380105e-02  -1.0225466804272755e-02  -5.3626528546756522e-02  -5.5390235206002315e-02  -3.7257730027651259e-02  -1.1660583788037270e-02  -7.1793898729667502e-02  -7.6307535290917231e-02  -1.3890112526575410e-01  -9.4050509438543522e-03  -2.1653881971171064e-02  -1.1725699555396434e-01  -1.1110544856974723e-01  -1.1525855013249793e-01  -2.0631315059441095e-02  -1.4511142494176196e-01  -1.4742709722936082e-01  -8.8045963968483895e-02  -2.4580894075167611e-02  -9.7650515399323803e-02  -2.2457742277985437e-01  -3.0700319257498521e-01  -1.6256864095365536e-01  -1.1808360412384772e-01  -2.4180355983904570e-02  -9.1667686628918651e-02  -2.3746560912369144e-01  -4.3652451066548258e-03  -5.4715699042097894e-03  -1.1788924569063353e-02  -3.3912741767788651e-03  -7.2325857952903532e-03  -3.7911686156303713e-02  -4.5123110261775401e-02  -4.5123110261775394e-02  -1.1916329010683810e-02  -4.8971401646485134e-02  -5.1598186190419823e-02  -3.9632910719302750e-02  -1.2574252619312217e-02  -6.5561727483295612e-02  -8.1172141489845223e-02  -1.4180224881508349e-01  -9.6889432645629100e-03  -9.6838315313460710e-02  -1.2890195341715494e-01  -1.0349910233727801e-01  -1.8193231197808388e-02  -2.2247888454107956e-02  -1.5952264553402651e-01  -1.5187719760814916e-01  -8.0646550622679072e-02  -2.5094296760196994e-02  -1.0734832602266216e-01  -2.0570385828712495e-01  -3.3105852747557851e-01  -1.5143909343322728e-01  -1.2896133573150140e-01  -2.2081345873625466e-02  -9.4434684112124509e-02  -1.2841811730285257e-03  -3.9745259137187149e-03  -5.8049296944714442e-03  -1.2820861309511765e-02  -3.2481450548030389e-03  -6.5852200653640017e-03  -3.4949955569506960e-02  -3.7911686156303699e-02  -8.5912670034558377e-03  -1.0985403491629636e-02  -4.4588127383352695e-02  -4.9420478727086735e-02  -4.3102154793481194e-02  -1.3340349057675522e-02  -5.9693505969062984e-02  -8.8277498268873558e-02  -7.7877860278349906e-02  -1.0306613502320741e-02  -8.9273128176827560e-02  -1.4179268370601944e-01  -9.9130910657508994e-02  -1.6771942545832825e-02  -2.3603358923948780e-02  -1.7547557211141071e-01  -1.6155937059596362e-01  -7.5125438972557121e-02  -2.3771204647921415e-02  -1.1808360412384776e-01  -1.9162124768945962e-01  -3.5122853411273747e-01  -1.4504758884054902e-01  -1.3906614309271934e-01  -2.0104914899444135e-02  -1.5977432837078706e-03  -1.4117150193288736e-03  -3.6405053775843779e-03  -6.0453413598188909e-03  -1.4094