<?xml version="1.0"?>
<VTKFile type="UnstructuredGrid"  version="0.1"  >
<UnstructuredGrid>
<Piece  NumberOfPoints="1089" NumberOfCells="2048">
<Points>
<DataArray  type="Float64"  NumberOfComponents="3"  format="ascii">0 0 0  0.03125 0 0  0.0625 0 0  0.09375 0 0  0.125 0 0  0.15625 0 0  0.1875 0 0  0.21875 0 0  0.25 0 0  0.28125 0 0  0.3125 0 0  0.34375 0 0  0.375 0 0  0.40625 0 0  0.4375 0 0  0.46875 0 0  0.5 0 0  0.53125 0 0  0.5625 0 0  0.59375 0 0  0.625 0 0  0.65625 0 0  0.6875 0 0  0.71875 0 0  0.75 0 0  0.78125 0 0  0.8125 0 0  0.84375 0 0  0.875 0 0  0.90625 0 0  0.9375 0 0  0.96875 0 0  1 0 0  0 0.03125 0  0.03125 0.03125 0  0.0625 0.03125 0  0.09375 0.03125 0  0.125 0.03125 0  0.15625 0.03125 0  0.1875 0.03125 0  0.21875 0.03125 0  0.25 0.03125 0  0.28125 0.03125 0  0.3125 0.03125 0  0.34375 0.03125 0  0.375 0.03125 0  0.40625 0.03125 0  0.4375 0.03125 0  0.46875 0.03125 0  0.5 0.03125 0  0.53125 0.03125 0  0.5625 0.03125 0  0.59375 0.03125 0  0.625 0.03125 0  0.65625 0.03125 0  0.6875 0.03125 0  0.71875 0.03125 0  0.75 0.03125 0  0.78125 0.03125 0  0.8125 0.03125 0  0.84375 0.03125 0  0.875 0.03125 0  0.90625 0.03125 0  0.9375 0.03125 0  0.96875 0.03125 0  1 0.03125 0  0 0.0625 0  0.03125 0.0625 0  0.0625 0.0625 0  0.09375 0.0625 0  0.125 0.0625 0  0.15625 0.0625 0  0.1875 0.0625 0  0.21875 0.0625 0  0.25 0.0625 0  0.28125 0.0625 0  0.3125 0.0625 0  0.34375 0.0625 0  0.375 0.0625 0  0.40625 0.0625 0  0.4375 0.0625 0  0.46875 0.0625 0  0.5 0.0625 0  0.53125 0.0625 0  0.5625 0.0625 0  0.59375 0.0625 0  0.625 0.0625 0  0.65625 0.0625 0  0.6875 0.0625 0  0.71875 0.0625 0  0.75 0.0625 0  0.78125 0.0625 0  0.8125 0.0625 0  0.84375 0.0625 0  0.875 0.0625 0  0.90625 0.0625 0  0.9375 0.0625 0  0.96875 0.0625 0  1 0.0625 0  0 0.09375 0  0.03125 0.09375 0  0.0625 0.09375 0  0.09375 0.09375 0  0.125 0.09375 0  0.15625 0.09375 0  0.1875 0.09375 0  0.21875 0.09375 0  0.25 0.09375 0  0.28125 0.09375 0  0.3125 0.09375 0  0.34375 0.09375 0  0.375 0.09375 0  0.40625 0.09375 0  0.4375 0.09375 0  0.46875 0.09375 0  0.5 0.09375 0  0.53125 0.09375 0  0.5625 0.09375 0  0.59375 0.09375 0  0.625 0.09375 0  0.65625 0.09375 0  0.6875 0.09375 0  0.71875 0.09375 0  0.75 0.09375 0  0.78125 0.09375 0  0.8125 0.09375 0  0.84375 0.09375 0  0.875 0.09375 0  0.90625 0.09375 0  0.9375 0.09375 0  0.96875 0.09375 0  1 0.09375 0  0 0.125 0  0.03125 0.125 0  0.0625 0.125 0  0.09375 0.125 0  0.125 0.125 0  0.15625 0.125 0  0.1875 0.125 0  0.21875 0.125 0  0.25 0.125 0  0.28125 0.125 0  0.3125 0.125 0  0.34375 0.125 0  0.375 0.125 0  0.40625 0.125 0  0.4375 0.125 0  0.46875 0.125 0  0.5 0.125 0  0.53125 0.125 0  0.5625 0.125 0  0.59375 0.125 0  0.625 0.125 0  0.65625 0.125 0  0.6875 0.125 0  0.71875 0.125 0  0.75 0.125 0  0.78125 0.125 0  0.8125 0.125 0  0.84375 0.125 0  0.875 0.125 0  0.90625 0.125 0  0.9375 0.125 0  0.96875 0.125 0  1 0.125 0  0 0.15625 0  0.03125 0.15625 0  0.0625 0.15625 0  0.09375 0.15625 0  0.125 0.15625 0  0.15625 0.15625 0  0.1875 0.15625 0  0.21875 0.15625 0  0.25 0.15625 0  0.28125 0.15625 0  0.3125 0.15625 0  0.34375 0.15625 0  0.375 0.15625 0  0.40625 0.15625 0  0.4375 0.15625 0  0.46875 0.15625 0  0.5 0.15625 0  0.53125 0.15625 0  0.5625 0.15625 0  0.59375 0.15625 0  0.625 0.15625 0  0.65625 0.15625 0  0.6875 0.15625 0  0.71875 0.15625 0  0.75 0.15625 0  0.78125 0.15625 0  0.8125 0.15625 0  0.84375 0.15625 0  0.875 0.15625 0  0.90625 0.15625 0  0.9375 0.15625 0  0.96875 0.15625 0  1 0.15625 0  0 0.1875 0  0.03125 0.1875 0  0.0625 0.1875 0  0.09375 0.1875 0  0.125 0.1875 0  0.15625 0.1875 0  0.1875 0.1875 0  0.21875 0.1875 0  0.25 0.1875 0  0.28125 0.1875 0  0.3125 0.1875 0  0.34375 0.1875 0  0.375 0.1875 0  0.40625 0.1875 0  0.4375 0.1875 0  0.46875 0.1875 0  0.5 0.1875 0  0.53125 0.1875 0  0.5625 0.1875 0  0.59375 0.1875 0  0.625 0.1875 0  0.65625 0.1875 0  0.6875 0.1875 0  0.71875 0.1875 0  0.75 0.1875 0  0.78125 0.1875 0  0.8125 0.1875 0  0.84375 0.1875 0  0.875 0.1875 0  0.90625 0.1875 0  0.9375 0.1875 0  0.96875 0.1875 0  1 0.1875 0  0 0.21875 0  0.03125 0.21875 0  0.0625 0.21875 0  0.09375 0.21875 0  0.125 0.21875 0  0.15625 0.21875 0  0.1875 0.21875 0  0.21875 0.21875 0  0.25 0.21875 0  0.28125 0.21875 0  0.3125 0.21875 0  0.34375 0.21875 0  0.375 0.21875 0  0.40625 0.21875 0  0.4375 0.21875 0  0.46875 0.21875 0  0.5 0.21875 0  0.53125 0.21875 0  0.5625 0.21875 0  0.59375 0.21875 0  0.625 0.21875 0  0.65625 0.21875 0  0.6875 0.21875 0  0.71875 0.21875 0  0.75 0.21875 0  0.78125 0.21875 0  0.8125 0.21875 0  0.84375 0.21875 0  0.875 0.21875 0  0.90625 0.21875 0  0.9375 0.21875 0  0.96875 0.21875 0  1 0.21875 0  0 0.25 0  0.03125 0.25 0  0.0625 0.25 0  0.09375 0.25 0  0.125 0.25 0  0.15625 0.25 0  0.1875 0.25 0  0.21875 0.25 0  0.25 0.25 0  0.28125 0.25 0  0.3125 0.25 0  0.34375 0.25 0  0.375 0.25 0  0.40625 0.25 0  0.4375 0.25 0  0.46875 0.25 0  0.5 0.25 0  0.53125 0.25 0  0.5625 0.25 0  0.59375 0.25 0  0.625 0.25 0  0.65625 0.25 0  0.6875 0.25 0  0.71875 0.25 0  0.75 0.25 0  0.78125 0.25 0  0.8125 0.25 0  0.84375 0.25 0  0.875 0.25 0  0.90625 0.25 0  0.9375 0.25 0  0.96875 0.25 0  1 0.25 0  0 0.28125 0  0.03125 0.28125 0  0.0625 0.28125 0  0.09375 0.28125 0  0.125 0.28125 0  0.15625 0.28125 0  0.1875 0.28125 0  0.21875 0.28125 0  0.25 0.28125 0  0.28125 0.28125 0  0.3125 0.28125 0  0.34375 0.28125 0  0.375 0.28125 0  0.40625 0.28125 0  0.4375 0.28125 0  0.46875 0.28125 0  0.5 0.28125 0  0.53125 0.28125 0  0.5625 0.28125 0  0.59375 0.28125 0  0.625 0.28125 0  0.65625 0.28125 0  0.6875 0.28125 0  0.71875 0.28125 0  0.75 0.28125 0  0.78125 0.28125 0  0.8125 0.28125 0  0.84375 0.28125 0  0.875 0.28125 0  0.90625 0.28125 0  0.9375 0.28125 0  0.96875 0.28125 0  1 0.28125 0  0 0.3125 0  0.03125 0.3125 0  0.0625 0.3125 0  0.09375 0.3125 0  0.125 0.3125 0  0.15625 0.3125 0  0.1875 0.3125 0  0.21875 0.3125 0  0.25 0.3125 0  0.28125 0.3125 0  0.3125 0.3125 0  0.34375 0.3125 0  0.375 0.3125 0  0.40625 0.3125 0  0.4375 0.3125 0  0.46875 0.3125 0  0.5 0.3125 0  0.53125 0.3125 0  0.5625 0.3125 0  0.59375 0.3125 0  0.625 0.3125 0  0.65625 0.3125 0  0.6875 0.3125 0  0.71875 0.3125 0  0.75 0.3125 0  0.78125 0.3125 0  0.8125 0.3125 0  0.84375 0.3125 0  0.875 0.3125 0  0.90625 0.3125 0  0.9375 0.3125 0  0.96875 0.3125 0  1 0.3125 0  0 0.34375 0  0.03125 0.34375 0  0.0625 0.34375 0  0.09375 0.34375 0  0.125 0.34375 0  0.15625 0.34375 0  0.1875 0.34375 0  0.21875 0.34375 0  0.25 0.34375 0  0.28125 0.34375 0  0.3125 0.34375 0  0.34375 0.34375 0  0.375 0.34375 0  0.40625 0.34375 0  0.4375 0.34375 0  0.46875 0.34375 0  0.5 0.34375 0  0.53125 0.34375 0  0.5625 0.34375 0  0.59375 0.34375 0  0.625 0.34375 0  0.65625 0.34375 0  0.6875 0.34375 0  0.71875 0.34375 0  0.75 0.34375 0  0.78125 0.34375 0  0.8125 0.34375 0  0.84375 0.34375 0  0.875 0.34375 0  0.90625 0.34375 0  0.9375 0.34375 0  0.96875 0.34375 0  1 0.34375 0  0 0.375 0  0.03125 0.375 0  0.0625 0.375 0  0.09375 0.375 0  0.125 0.375 0  0.15625 0.375 0  0.1875 0.375 0  0.21875 0.375 0  0.25 0.375 0  0.28125 0.375 0  0.3125 0.375 0  0.34375 0.375 0  0.375 0.375 0  0.40625 0.375 0  0.4375 0.375 0  0.46875 0.375 0  0.5 0.375 0  0.53125 0.375 0  0.5625 0.375 0  0.59375 0.375 0  0.625 0.375 0  0.65625 0.375 0  0.6875 0.375 0  0.71875 0.375 0  0.75 0.375 0  0.78125 0.375 0  0.8125 0.375 0  0.84375 0.375 0  0.875 0.375 0  0.90625 0.375 0  0.9375 0.375 0  0.96875 0.375 0  1 0.375 0  0 0.40625 0  0.03125 0.40625 0  0.0625 0.40625 0  0.09375 0.40625 0  0.125 0.40625 0  0.15625 0.40625 0  0.1875 0.40625 0  0.21875 0.40625 0  0.25 0.40625 0  0.28125 0.40625 0  0.3125 0.40625 0  0.34375 0.40625 0  0.375 0.40625 0  0.40625 0.40625 0  0.4375 0.40625 0  0.46875 0.40625 0  0.5 0.40625 0  0.53125 0.40625 0  0.5625 0.40625 0  0.59375 0.40625 0  0.625 0.40625 0  0.65625 0.40625 0  0.6875 0.40625 0  0.71875 0.40625 0  0.75 0.40625 0  0.78125 0.40625 0  0.8125 0.40625 0  0.84375 0.40625 0  0.875 0.40625 0  0.90625 0.40625 0  0.9375 0.40625 0  0.96875 0.40625 0  1 0.40625 0  0 0.4375 0  0.03125 0.4375 0  0.0625 0.4375 0  0.09375 0.4375 0  0.125 0.4375 0  0.15625 0.4375 0  0.1875 0.4375 0  0.21875 0.4375 0  0.25 0.4375 0  0.28125 0.4375 0  0.3125 0.4375 0  0.34375 0.4375 0  0.375 0.4375 0  0.40625 0.4375 0  0.4375 0.4375 0  0.46875 0.4375 0  0.5 0.4375 0  0.53125 0.4375 0  0.5625 0.4375 0  0.59375 0.4375 0  0.625 0.4375 0  0.65625 0.4375 0  0.6875 0.4375 0  0.71875 0.4375 0  0.75 0.4375 0  0.78125 0.4375 0  0.8125 0.4375 0  0.84375 0.4375 0  0.875 0.4375 0  0.90625 0.4375 0  0.9375 0.4375 0  0.96875 0.4375 0  1 0.4375 0  0 0.46875 0  0.03125 0.46875 0  0.0625 0.46875 0  0.09375 0.46875 0  0.125 0.46875 0  0.15625 0.46875 0  0.1875 0.46875 0  0.21875 0.46875 0  0.25 0.46875 0  0.28125 0.46875 0  0.3125 0.46875 0  0.34375 0.46875 0  0.375 0.46875 0  0.40625 0.46875 0  0.4375 0.46875 0  0.46875 0.46875 0  0.5 0.46875 0  0.53125 0.46875 0  0.5625 0.46875 0  0.59375 0.46875 0  0.625 0.46875 0  0.65625 0.46875 0  0.6875 0.46875 0  0.71875 0.46875 0  0.75 0.46875 0  0.78125 0.46875 0  0.8125 0.46875 0  0.84375 0.46875 0  0.875 0.46875 0  0.90625 0.46875 0  0.9375 0.46875 0  0.96875 0.46875 0  1 0.46875 0  0 0.5 0  0.03125 0.5 0  0.0625 0.5 0  0.09375 0.5 0  0.125 0.5 0  0.15625 0.5 0  0.1875 0.5 0  0.21875 0.5 0  0.25 0.5 0  0.28125 0.5 0  0.3125 0.5 0  0.34375 0.5 0  0.375 0.5 0  0.40625 0.5 0  0.4375 0.5 0  0.46875 0.5 0  0.5 0.5 0  0.53125 0.5 0  0.5625 0.5 0  0.59375 0.5 0  0.625 0.5 0  0.65625 0.5 0  0.6875 0.5 0  0.71875 0.5 0  0.75 0.5 0  0.78125 0.5 0  0.8125 0.5 0  0.84375 0.5 0  0.875 0.5 0  0.90625 0.5 0  0.9375 0.5 0  0.96875 0.5 0  1 0.5 0  0 0.53125 0  0.03125 0.53125 0  0.0625 0.53125 0  0.09375 0.53125 0  0.125 0.53125 0  0.15625 0.53125 0  0.1875 0.53125 0  0.21875 0.53125 0  0.25 0.53125 0  0.28125 0.53125 0  0.3125 0.53125 0  0.34375 0.53125 0  0.375 0.53125 0  0.40625 0.53125 0  0.4375 0.53125 0  0.46875 0.53125 0  0.5 0.53125 0  0.53125 0.53125 0  0.5625 0.53125 0  0.59375 0.53125 0  0.625 0.53125 0  0.65625 0.53125 0  0.6875 0.53125 0  0.71875 0.53125 0  0.75 0.53125 0  0.78125 0.531
[...]
<PointData  Scalars="phi"> 
<DataArray  type="Float64"  Name="phi"  format="ascii">0.0000000000000000e+00  0.0000000000000000e+00  0.0000000000000000e+00  0.0000000000000000e+00  0.0000000000000000e+00  0.0000000000000000e+00  0.0000000000000000e+00  0.0000000000000000e+00  0.0000000000000000e+00  0.0000000000000000e+00  0.0000000000000000e+00  0.0000000000000000e+00  0.0000000000000000e+00  0.0000000000000000e+00  0.0000000000000000e+00  0.0000000000000000e+00  0.0000000000000000e+00  0.0000000000000000e+00  0.0000000000000000e+00  0.0000000000000000e+00  0.0000000000000000e+00  0.0000000000000000e+00  0.0000000000000000e+00  0.0000000000000000e+00  0.0000000000000000e+00  0.0000000000000000e+00  0.0000000000000000e+00  0.0000000000000000e+00  0.0000000000000000e+00  0.0000000000000000e+00  0.0000000000000000e+00  0.0000000000000000e+00  0.0000000000000000e+00  0.0000000000000000e+00  -8.8736034238369796e-19  1.5992103222502333e-07  6.3023937224105373e-07  1.5457855255877898e-06  3.0193346741758240e-06  5.1359910972589962e-06  7.9486478141255129e-06  1.1474729680919988e-05  1.5694366765678377e-05  2.0550084419276709e-05  2.5948035202547664e-05  3.1760736592664651e-05  3.7831218950984822e-05  4.3978432631626804e-05  5.0003713375408606e-05  5.5698063132862810e-05  6.0849970791307395e-05  6.5253475201553922e-05  6.8716162272729309e-05  7.1066789164622349e-05  7.2162241752647582e-05  7.1893556140985610e-05  7.0190770241557009e-05  6.7026416215103241e-05  6.2417517671161928e-05  5.6426016016493509e-05  4.9157618545682451e-05  4.0759141013489223e-05  3.1414525837931203e-05  2.1339909667885628e-05  1.0778586113707897e-05  0.0000000000000000e+00  0.0000000000000000e+00  -1.5992103222850323e-07  -3.4132289110270580e-18  7.8039308094598616e-07  2.4510085281721166e-06  5.2377959744546467e-06  9.3116535392744618e-06  1.4779347254474789e-05  2.1676996038253361e-05  2.9966408245814396e-05  3.9534439783961761e-05  5.0195423339853735e-05  6.1696596956590036e-05  7.3726342094469755e-05  8.5924930709799349e-05  9.7897381880803646e-05  1.0922794485820516e-04  1.1949566031327264e-04  1.2829040750852568e-04  1.3522882384647979e-04  1.3996948562556476e-04  1.4222676483409804e-04  1.4178282556315375e-04  1.3849729344125091e-04  1.3231422004979281e-04  1.2326606880249329e-04  1.1147456648320786e-04  9.7148393488527107e-05  8.0577825884007936e-05  6.2126598043614110e-05  4.2221435499345531e-05  2.1339909667885675e-05  0.0000000000000000e+00  0.0000000000000000e+00  -6.3023937224610691e-07  -7.8039308095589920e-07  -7.1956364638651065e-18  2.1157212216846404e-06  5.9064826486797463e-06  1.1630076471869805e-05  1.9448785477111411e-05  2.9419626157963994e-05  4.1488843086006735e-05  5.5490904734902053e-05  7.1152073633637327e-05  8.8098444051327415e-05  1.0586816506011355e-04  1.2392740237059390e-04  1.4168944502208658e-04  1.5853623846296251e-04  1.7384152855685501e-04  1.8699473534615864e-04  1.9742464355942193e-04  2.0462200014782571e-04  2.0816014753704046e-04  2.0771289343210681e-04  2.0306892132451919e-04  1.9414217663088593e-04  1.8097781704749888e-04  1.6375348698582557e-04  1.4277585917099858e-04  1.1847257535963685e-04  9.1379904071429638e-05  6.2126598043614340e-05  3.1414525837931392e-05  0.0000000000000000e+00  0.0000000000000000e+00  -1.5457855255942275e-06  -2.4510085281847433e-06  -2.1157212217029566e-06  -1.1643683381412257e-17  4.3503527704202794e-06  1.1281457801751490e-05  2.1013331831467574e-05  3.3626928248562182e-05  4.9056792266631788e-05  6.7089658327529800e-05  8.7369085208539372e-05  1.0940598824111446e-04  1.3259469724988889e-04  1.5623395215045834e-04  1.7955205392168895e-04  2.0173522436123435e-04  2.2195809997542764e-04  2.3941519850233063e-04  2.5335215430581182e-04  2.6309552289654949e-04  2.6808000505849667e-04  2.6787203565635119e-04  2.6218881765783912e-04  2.5091205316004294e-04  2.3409582381547181e-04  2.1196829533469896e-04  1.8492715579391926e-04  1.5352893470611584e-04  1.1847257535963751e-04  8.0577825884008695e-05  4.0759141013489697e-05  0.0000000000000000e+00  0.0000000000000000e+00  -3.0193346741834058e-06  -5.2377959744695113e-06  -5.9064826487012898e-06  -4.3503527704476267e-06  -1.6019504211288873e-17  7.5806515646061302e-06  1.8671995322876240e-05  3.3382645423551111e-05  5.1640266800631772e-05  7.3189734839894019e-05  9.7598742423744508e-05  1.2427068186467497e-04  1.5246434519822940e-04  1.8131971947107727e-04  2.0988891433614058e-04  2.3717105669414514e-04  2.6214982912703259e-04  2.8383222157303989e-04  3.0128701327413783e-04  3.1368150656021436e-04  3.2031509541399463e-04  3.2064836769599516e-04  3.1432660600337386e-04  3.0119676203075831e-04  2.8131722485700335e-04  2.5495997506476257e-04  2.2260500278054610e-04  1.8492715579392064e-04  1.4277585917100045e-04  9.7148393488528733e-05  4.9157618545683386e-05  0.0000000000000000e+00  0.0000000000000000e+00  -5.1359910972674412e-06  -9.3116535392910078e-06  -1.1630076471893754e-05  -1.1281457801781824e-05  -7.5806515646415565e-06  -1.9499490962560122e-17  1.1804141170575949e-05  2.7972260157865766e-05  4.8430720939877630e-05  7.2889445039184419e-05  1.0084838314466848e-04  1.3161257467039685e-04  1.6431525868139624e-04  1.9794818508841235e-04  2.3139799279470416e-04  2.6348728248008410e-04  2.9301882517475061e-04  3.1882122093414365e-04  3.3979425970904749e-04  3.5495224136220340e-04  3.6346358358280113e-04  3.6468518247903580e-04  3.5819018567772633e-04  3.4378808429685577e-04  3.2153631856337618e-04  2.9174291069934200e-04  2.5495997506476506e-04  2.1196829533470254e-04  1.6375348698582920e-04  1.1147456648321076e-04  5.6426016016495101e-05  0.0000000000000000e+00  0.0000000000000000e+00  -7.9486478141345084e-06  -1.4779347254492399e-05  -1.9448785477136849e-05  -2.1013331831499707e-05  -1.8671995322913611e-05  -1.1804141170616849e-05  -2.1278799933184182e-17  1.6917261770243774e-05  3.8878816703292522e-05  6.5567341422717698e-05  9.6424233904651030e-05  1.3066665458320495e-04  1.6731378064726053e-04  2.0522130358377911e-04  2.4312287750209203e-04  2.7967695252594372e-04  3.1351721413346641e-04  3.4330470402347342e-04  3.6777962653314632e-04  3.8581084963336214e-04  3.9644119094041710e-04  3.9892673391251601e-04  3.9276864150675781e-04  3.7773621548065528e-04  3.5388027831698664e-04  3.2153631856337986e-04  2.8131722485700921e-04  2.3409582381547840e-04  1.8097781704750498e-04  1.2326606880249790e-04  6.2417517671164367e-05  0.0000000000000000e+00  0.0000000000000000e+00  -1.1474729680929203e-05  -2.1676996038271380e-05  -2.9419626157989961e-05  -3.3626928248594851e-05  -3.3382645423588896e-05  -2.7972260157906783e-05  -1.6917261770286004e-05  -2.0636695602459364e-17  2.2721889249167975e-05  5.0912096952024896e-05  8.3963476370080747e-05  1.2101684916727309e-04  1.6099010431676742e-04  2.0261651108485524e-04  2.4449080752785783e-04  2.8512132093945930e-04  3.2298613832696212e-04  3.5659118249818439e-04  3.8452796900976833e-04  4.0552882420430327e-04  4.1851743470418408e-04  4.2265277060569398e-04  4.1736467163751772e-04  4.0237969820638075e-04  3.7773621548066059e-04  3.4378808429686456e-04  3.0119676203076872e-04  2.5091205316005345e-04  1.9414217663089509e-04  1.3231422004979953e-04  6.7026416215106778e-05  0.0000000000000000e+00  0.0000000000000000e+00  -1.5694366765687471e-05  -2.9966408245832150e-05  -4.1488843086032241e-05  -4.9056792266663698e-05  -5.1640266800668398e-05  -4.8430720939916986e-05  -3.8878816703332420e-05  -2.2721889249206106e-05  -1.7019739860130932e-17  2.8940094639598175e-05  6.3453263599984956e-05  1.0261633901554251e-04  1.4525973383723855e-04  1.9000916283413570e-04  2.3533589678536616e-04  2.7961364572181310e-04  3.2117990593092646e-04  3.5839942718277155e-04  3.8972736817696242e-04  4.1376971300132446e-04  4.2933861929879359e-04  4.3550055613884007e-04  4.3161535911827423e-04  4.1736467163752482e-04  3.9276864150677000e-04  3.5819018567774150e-04  3.1432660600339002e-04  2.6218881765785441e-04  2.0306892132453206e-04  1.3849729344126024e-04  7.0190770241561860e-05  0.0000000000000000e+00  0.0000000000000000e+00  -2.0550084419285366e-05  -3.9534439783978621e-05  -5.5490904734926136e-05  -6.7089658327559724e-05  -7.3189734839928009e-05  -7.2889445039220360e-05  -6.5567341422753301e-05  -5.0912096952057768e-05  -2.8940094639625889e-05  -1.0113392696619808e-17  3.5235908371344273e-05  7.5793362330422309e-05  1.2042989205518590e-04  1.6767951629482645e-04  2.1590664887351712e-04  2.6336717553346756e-04  3.0827437366255254e-04  3.4886715503418513e-04  3.8347801583700784e-04  4.1059808272385725e-04  4.2893674824274515e-04  4.3747358985603784e-04  4.3550055613884918e-04  4.2265277060570976e-04  3.9892673391253651e-04  3.6468518247905846e-04  3.2064836769601793e-04  2.6787203565637201e-04  2.0771289343212400e-04  1.4178282556316597e-04  7.1893556140991967e-05  0.0000000000000000e+00  0.0000000000000000e+00  -2.5948035202555568e-05  -5.0195423339869063e-05  -7.1152073633659092e-05  -8.7369085208566124e-05  -9.7598742423774418e-05  -1.0084838314469938e-04  -9.6424233904680547e-05  -8.3963476370106402e-05  -6.3453263600004282e-05  -3.5235908371354912e-05  1.1450316333436276e-19  4.1242249898509244e-05  8.7190599314549035e-05  1.3630397064633501e-04  1.8685746312401702e-04  2.3700701529947004e-04  2.8485925071388286e-04  3.2854383501901079e-04  3.6628557040228426e-04  3.9647345713362078e-04  4.1772406231029187e-04  4.2893674824275604e-04  4.2933861929881332e-04  4.1851743470421011e-04  3.9644119094044703e-04  3.6346358358283235e-04  3.2031509541402482e-04  2.6808000505852366e-04  2.0816014753706252e-04  1.4222676483411354e-04  7.2162241752655619e-05  0.0000000000000000e+00  0.0000000000000000e+00  -3.1760736592671529e-05  -6.1696596956603290e-05  -8.8098444051346050e-05  -1.0940598824113698e-04  -1.2427068186469952e-04  -1.3161257467042119e-04  -1.3066665458322675e-04  -1.2101684916728980e-04  -1.0261633901555164e-04  -7.5793362330421496e-05  -4.1242249898496315e-05  1.3421931961934378e-17  4.6590738387580191e-05  9.6930879916331457e-05  1.4922444796071983e-04  2.0154618252787512e-04  2.5191462870299076e-04  2.9836790796936334e-04  3.3903926663252120e-04  3.7222949892935618e-04  3.9647345713363357e-04  4.1059808272388067e-04  4.1376971300135623e-04  4.0552882420434079e-04  3.8581084963340258e-04  3.5495224136224406e-04  3.1368150656025274e-04  2.6309552289658332e-04  2.0462200014785293e-04  1.3996948562558381e-04  7.1066789164632161e-05  0.0000000000000000e+00  0.0000000000000000e+00  -3.7831218950990419e-05  -7.3726342094480461e-05  -1.0586816506012835e-04  -1.3259469724990629e-04  -1.5246434519824753e-04  -1.6431525868141288e-04  -1.6731378064727329e-04  -1.6099010431677377e-04  -1.4525973383723605e-04  -1.2042989205517214e-04  -8.7190599314521930e-05  -4.6590738387538002e-05  2.9302232671040207e-17  5.0941851339080760e-05  1.0438646130156009e-04  1.5834677330621872e-04  2.1077264710640678e-04  2.5962931189684336e-04  3.0297564460230342e-04  3.3903926663253557e-04  3.6628557040231126e-04  3.8347801583704514e-04  3.8972736817700741e-04  3.8452796900981820e-04  3.6777962653319809e-04  3.3979425970909823e-04  3.0128701327418488e-04  2.5335215430585280e-04  1.9742464355945467e-04  1.3522882384650256e-04  6.8716162272740977e-05  0.0000000000000000e+00  0.0000000000000000e+00  -4.3978432631630937e-05  -8.5924930709807128e-05  -1.2392740237060430e-04  -1.5623395215046988e-04  -1.8131971947108814e-04  -1.9794818508842032e-04  -2.0522130358378182e-04  -2.0261651108485019e-04  -1.9000916283412047e-04  -1.6767951629479875e-04  -1.3630397064629278e-04  -9.6930879916273059e-05  -5.0941851339004981e-05  4.6905756459176694e-17  5.4012866057157668e-05  1.0906772864254098e-04  1.6306577318328156e-04  2.1391876609627296e-04  2.5962931189685919e-04  2.9836790796939342e-04  3.2854383501905308e-04  3.4886715503423707e-04  3.5839942718283047e-04  3.5659118249824716e-04  3.4330470402353696e-04  3.1882122093420485e-04  2.8383222157309595e-04  2.3941519850237893e-04  1.8699473534619697e-04  1.2829040750855225e-04  6.5253475201567502e-05  0.0000000000000000e+00  0.0000000000000000e+00  -5.0003713375411141e-05  -9.7897381880808227e-05  -1.4168944502209219e-04  -1.7955205392169413e-04  -2.0988891433614367e-04  -2.3139799279470291e-04  -2.4312287750208404e-04  -2.4449080752784081e-04  -2.3533589678533773e-04  -2.1590664887347503e-04  -1.8685746312395931e-04  -1.4922444796064492e-04  -1.0438646130146693e-04  -5.4012866057045771e-05  6.5256397100432073e-17  5.5601206217637413e-05  1.1066368800271756e-04  1.6306577318329836e-04  2.1077264710643920e-04  2.5191462870303706e-04  2.8485925071394081e-04  3.0827437366261938e-04  3.2117990593099927e-04  3.2298613832703780e-04  3.1351721413354176e-04  2.9301882517482222e-04  2.6214982912709753e-04  2.2195809997548315e-04  1.7384152855689884e-04  1.1949566031330293e-04  6.0849970791322845e-05  0.0000000000000000e+00  0.0000000000000000e+00  -5.5698063132863691e-05  -1.0922794485820646e-04  -1.5853623846296324e-04  -2.0173522436123310e-04  -2.3717105669414018e-04  -2.6348728248007337e-04  -2.7967695252592497e-04  -2.8512132093943014e-04  -2.7961364572177125e-04  -2.6336717553341091e-04  -2.3700701529939686e-04  -2.0154618252778389e-04  -1.5834677330610862e-04  -1.0906772864241159e-04  -5.5601206217489047e-05  8.3222047073261947e-17  5.5601206217654686e-05  1.0906772864257484e-04  1.5834677330626794e-04  2.0154618252793763e-04  2.3700701529954352e-04  2.6336717553354915e-04  2.7961364572189973e-04  2.8512132093954767e-04  2.7967695252603046e-04  2.6348728248016574e-04  2.3717105669421854e-04  2.0173522436129677e-04  1.5853623846301157e-04  1.0922794485823895e-04  5.5698063132880035e-05  0.0000000000000000e+00  0.0000000000000000e+00  -6.0849970791306629e-05  -1.1949566031327065e-04  -1.7384152855685081e-04  -2.2195809997541994e-04  -2.6214982912701969e-04  -2.9301882517473044e-04  -3.1351721413343692e-04  -3.2298613832692092e-04  -3.2117990593087155e-04  -3.0827437366248196e-04  -2.8485925071379493e-04  -2.5191462870288413e-04  -2.1077264710628072e-04  -1.6306577318313595e-04  -1.1066368800255279e-04  -5.5601206217471822e-05  9.9577252236448089e-17  5.4012866057208259e-05  1.0438646130162549e-04  1.4922444796079792e-04  1.8685746312410533e-04  2.1590664887361272e-04  2.3533589678546580e-04  2.4449080752795801e-04  2.4312287750218921e-04  2.3139799279479502e-04  2.0988891433622184e-04  1.7955205392175766e-04  1.4168944502214041e-04  9.7897381880840645e-05  5.0003713375427444e-05  0.0000000000000000e+00  0.0000000000000000e+00  -6.5253475201551537e-05  -1.2829040750852051e-04  -1.8699473534614973e-04  -2.3941519850231673e-04  -2.8383222157301940e-04  -3.1882122093411459e-04  -3.4330470402343385e-04  -3.5659118249813213e-04  -3.5839942718270476e-04  -3.4886715503410176e-04  -3.2854383501890947e-04  -2.9836790796924288e-04  -2.5962931189670317e-04  -2.1391876609611301e-04  -1.6306577318311928e-04  -1.0906772864237787e-04  -5.4012866056995241e-05  1.1324128508438616e-16  5.0941851339161262e-05  9.6930879916423953e-05  1.3630397064643687e-04  1.6767951629493465e-04  1.9000916283424689e-04  2.0261651108496585e-04  2.0522130358388558e-04  1.9794818508851123e-04  1.8131971947116531e-04  1.5623395215053258e-04  1.2392740237065185e-04  8.5924930709839112e-05  4.3978432631647024e-05  0.0000000000000000e+00  0.0000000000000000e+00  -6.8716162272725419e-05  -1.3522882384647161e-04  -1.9742464355940864e-04  -2.5335215430579219e-04  -3.0128701327411034e-04  -3.3979425970901030e-04  -3.6777962653309758e-04  -3.8452796900970615e-04  -3.8972736817688506e-04  -3.8347801583691341e-04  -3.6628557040217140e-04  -3.3903926663238887e-04  -3.0297564460215142e-04  -2.5962931189668740e-04  -2.1077264710624854e-04  -1.5834677330605967e-04  -1.0438646130140163e-04  -5.0941851338924486e-05  1.2324972490142286e-16  4.6590738387685318e-05  8.7190599314662659e-05  1.2042989205530489e-04  1.4525973383735952e-04  1.6099010431688677e-04  1.6731378064737469e-04  1.6431525868150168e-04  1.5246434519832288e-04  1.3259469724996752e-04  1.0586816506017479e-04  7.3726342094511700e-05  3.7831218951006127e-05  0.0000000000000000e+00  0.0000000000000000e+00  -7.1066789164617145e-05  -1.3996948562555397e-04  -2.0462200014780858e-04  -2.6309552289652488e-04  -3.1368150656018075e-04  -3.5495224136215922e-04  -3.8581084963330555e-04  -4.0552882420423269e-04  -4.1376971300123805e-04  -4.1059808272375349e-04  -3.9647345713349859e-04  -3.7222949892921464e-04  -3.3903926663237451e-04  -2.9836790796921290e-04  -2.5191462870283805e-04  -2.0154618252772144e-04  -1.4922444796056675e-04  -9.6930879916180536e-05  -4.6590738387432848e-05  1.2887727672460358e-16  4.1242249898632233e-05  7.5793362330549730e-05  1.0261633901567093e-04  1.2101684916739899e-04  1.3066665458332473e-04  1.3161257467050704e-04  1.2427068186477238e-04  1.0940598824119615e-04  8.8098444051390950e-05  6.1696596956633485e-05  3.1760736592686715e-05  0.0000000000000000e+00  0.0000000000000000e+00  -7.2162241752641280e-05  -1.4222676483408513e-04  -2.0816014753702018e-04  -2.6808000505846783e-04  -3.2031509541395609e-04  -3.6346358358275136e-04  -3.9644119094035444e-04  -4.1851743470410694e-04  -4.2933861929870057e-04  -4.2893674824263467e-04  -4.1772406231016307e-04  -3.9647345713348585e-04  -3.6628557040214451e-04  -3.2854383501886735e-04  -2.8485925071373703e-04  -2.3700701529932332e-04  -1.8685746312387087e-04  -1.3630397064619089e-04  -8.7190599314408360e-05  -4.1242249898373332e-05  1.2971522280486169e-16  3.5235908371477400e-05  6.3453263600118245e-05  8.3963476370210716e-05  9.6424233904774168e-05  1.0084838314478140e-04  9.7598742423844024e-05  8.7369085208622638e-05  7.1152073633701999e-05  5.0195423339897930e-05  2.5948035202570083e-05  0.0000000000000000e+00  0.0000000000000000e+00  -7.1893556140978468e-05  -1.4178282556313916e-04  -2.0771289343208413e-04  -2.6787203565631942e-04  -3.2064836769595320e-04  -3.6468518247898218e-04  -3.9892673391244928e-04  -4.2265277060561256e-04  -4.3550055613874282e-04  -4.3747358985592351e-04  -4.2893674824262377e-04  -4.1059808272373013e-04  -3.8347801583687617e-04  -3.4886715503404993e-04  -3.0827437366241512e-04  -2.6336717553332927e-04  -2.1590664887337940e-04  -1.6767951629469060e-04  -1.2042989205505325e-04  -7.5793362330294143e-05  -3.5235908371221826e-05  1.2566436534945937e-16  2.8940094639733398e-05  5.0912096952156200e-05  6.5567341422841650e-05  7.2889445039297758e-05  7.3189734839993712e-05  6.7089658327613093e-05  5.5490904734966638e-05  3.9534439784005861e-05  2.0550084419299074e-05  0.0000000000000000e+00  0.0000000000000000e+00  -7.0190770241549324e-05  -1.3849729344123527e-04  -2.0306892132449498e-04  -2.6218881765780551e-04  -3.1432660600332995e-04  -3.5819018567767060e-04  -3.9276864150668896e-04  -4.1736467163743451e-04  -4.3161535911817551e-04  -4.3550055613873393e-04  -4.2933861929868100e-04  -4.1376971300120639e-04  -3.8972736817684012e-04  -3.5839942718264594e-04  -3.2117990593079874e-04  -2.7961364572168457e-04  -2.3533589678523812e-04  -1.9000916283400940e-04  -1.4525973383711522e-04  -1.0261633901542330e-04  -6.3453263599871061e-05  -2.8940094639490693e-05  1.1702898732880684e-16  2.2721889249297673e-05  3.8878816703414616e-05  4.8430720939989004e-05  5.1640266800729527e-05  4.9056792266713361e-05  4.1488843086069917e-05  2.9966408245857510e-05  1.5694366765700234e-05  0.0000000000000000e+00  0.0000000000000000e+00  -6.7026416215095326e-05  -1.3231422004977676e-04  -1.9414217663086121e-04  -2.5091205316000878e-04  -3.0119676203071381e-04  -3.4378808429679972e-04  -3.7773621548058654e-04  -4.0237969820629824e-04  -4.1736467163742757e-04  -4.2265277060559694e-04  -4.1851743470408119e-04  -4.0552882420419545e-04  -3.8452796900965660e-04  -3.5659118249806957e-04  -3.2298613832684535e-04  -2.8512132093934178e-04  -2.4449080752774073e-04  -2.0261651108473966e-04  -1.6099010431665456e-04  -1.2101684916716399e-04  -8.3963476369976528e-05  -5.0912096951926525e-05  -2.2721889249076448e-05  1.0443395174515078e-16  1.6917261770361234e-05 