<?xml version="1.0"?>
<VTKFile type="UnstructuredGrid"  version="0.1"  >
<UnstructuredGrid>
<Piece  NumberOfPoints="1089" NumberOfCells="2048">
<Points>
<DataArray  type="Float64"  NumberOfComponents="3"  format="ascii">0 0 0  0.03125 0 0  0.0625 0 0  0.09375 0 0  0.125 0 0  0.15625 0 0  0.1875 0 0  0.21875 0 0  0.25 0 0  0.28125 0 0  0.3125 0 0  0.34375 0 0  0.375 0 0  0.40625 0 0  0.4375 0 0  0.46875 0 0  0.5 0 0  0.53125 0 0  0.5625 0 0  0.59375 0 0  0.625 0 0  0.65625 0 0  0.6875 0 0  0.71875 0 0  0.75 0 0  0.78125 0 0  0.8125 0 0  0.84375 0 0  0.875 0 0  0.90625 0 0  0.9375 0 0  0.96875 0 0  1 0 0  0 0.03125 0  0.03125 0.03125 0  0.0625 0.03125 0  0.09375 0.03125 0  0.125 0.03125 0  0.15625 0.03125 0  0.1875 0.03125 0  0.21875 0.03125 0  0.25 0.03125 0  0.28125 0.03125 0  0.3125 0.03125 0  0.34375 0.03125 0  0.375 0.03125 0  0.40625 0.03125 0  0.4375 0.03125 0  0.46875 0.03125 0  0.5 0.03125 0  0.53125 0.03125 0  0.5625 0.03125 0  0.59375 0.03125 0  0.625 0.03125 0  0.65625 0.03125 0  0.6875 0.03125 0  0.71875 0.03125 0  0.75 0.03125 0  0.78125 0.03125 0  0.8125 0.03125 0  0.84375 0.03125 0  0.875 0.03125 0  0.90625 0.03125 0  0.9375 0.03125 0  0.96875 0.03125 0  1 0.03125 0  0 0.0625 0  0.03125 0.0625 0  0.0625 0.0625 0  0.09375 0.0625 0  0.125 0.0625 0  0.15625 0.0625 0  0.1875 0.0625 0  0.21875 0.0625 0  0.25 0.0625 0  0.28125 0.0625 0  0.3125 0.0625 0  0.34375 0.0625 0  0.375 0.0625 0  0.40625 0.0625 0  0.4375 0.0625 0  0.46875 0.0625 0  0.5 0.0625 0  0.53125 0.0625 0  0.5625 0.0625 0  0.59375 0.0625 0  0.625 0.0625 0  0.65625 0.0625 0  0.6875 0.0625 0  0.71875 0.0625 0  0.75 0.0625 0  0.78125 0.0625 0  0.8125 0.0625 0  0.84375 0.0625 0  0.875 0.0625 0  0.90625 0.0625 0  0.9375 0.0625 0  0.96875 0.0625 0  1 0.0625 0  0 0.09375 0  0.03125 0.09375 0  0.0625 0.09375 0  0.09375 0.09375 0  0.125 0.09375 0  0.15625 0.09375 0  0.1875 0.09375 0  0.21875 0.09375 0  0.25 0.09375 0  0.28125 0.09375 0  0.3125 0.09375 0  0.34375 0.09375 0  0.375 0.09375 0  0.40625 0.09375 0  0.4375 0.09375 0  0.46875 0.09375 0  0.5 0.09375 0  0.53125 0.09375 0  0.5625 0.09375 0  0.59375 0.09375 0  0.625 0.09375 0  0.65625 0.09375 0  0.6875 0.09375 0  0.71875 0.09375 0  0.75 0.09375 0  0.78125 0.09375 0  0.8125 0.09375 0  0.84375 0.09375 0  0.875 0.09375 0  0.90625 0.09375 0  0.9375 0.09375 0  0.96875 0.09375 0  1 0.09375 0  0 0.125 0  0.03125 0.125 0  0.0625 0.125 0  0.09375 0.125 0  0.125 0.125 0  0.15625 0.125 0  0.1875 0.125 0  0.21875 0.125 0  0.25 0.125 0  0.28125 0.125 0  0.3125 0.125 0  0.34375 0.125 0  0.375 0.125 0  0.40625 0.125 0  0.4375 0.125 0  0.46875 0.125 0  0.5 0.125 0  0.53125 0.125 0  0.5625 0.125 0  0.59375 0.125 0  0.625 0.125 0  0.65625 0.125 0  0.6875 0.125 0  0.71875 0.125 0  0.75 0.125 0  0.78125 0.125 0  0.8125 0.125 0  0.84375 0.125 0  0.875 0.125 0  0.90625 0.125 0  0.9375 0.125 0  0.96875 0.125 0  1 0.125 0  0 0.15625 0  0.03125 0.15625 0  0.0625 0.15625 0  0.09375 0.15625 0  0.125 0.15625 0  0.15625 0.15625 0  0.1875 0.15625 0  0.21875 0.15625 0  0.25 0.15625 0  0.28125 0.15625 0  0.3125 0.15625 0  0.34375 0.15625 0  0.375 0.15625 0  0.40625 0.15625 0  0.4375 0.15625 0  0.46875 0.15625 0  0.5 0.15625 0  0.53125 0.15625 0  0.5625 0.15625 0  0.59375 0.15625 0  0.625 0.15625 0  0.65625 0.15625 0  0.6875 0.15625 0  0.71875 0.15625 0  0.75 0.15625 0  0.78125 0.15625 0  0.8125 0.15625 0  0.84375 0.15625 0  0.875 0.15625 0  0.90625 0.15625 0  0.9375 0.15625 0  0.96875 0.15625 0  1 0.15625 0  0 0.1875 0  0.03125 0.1875 0  0.0625 0.1875 0  0.09375 0.1875 0  0.125 0.1875 0  0.15625 0.1875 0  0.1875 0.1875 0  0.21875 0.1875 0  0.25 0.1875 0  0.28125 0.1875 0  0.3125 0.1875 0  0.34375 0.1875 0  0.375 0.1875 0  0.40625 0.1875 0  0.4375 0.1875 0  0.46875 0.1875 0  0.5 0.1875 0  0.53125 0.1875 0  0.5625 0.1875 0  0.59375 0.1875 0  0.625 0.1875 0  0.65625 0.1875 0  0.6875 0.1875 0  0.71875 0.1875 0  0.75 0.1875 0  0.78125 0.1875 0  0.8125 0.1875 0  0.84375 0.1875 0  0.875 0.1875 0  0.90625 0.1875 0  0.9375 0.1875 0  0.96875 0.1875 0  1 0.1875 0  0 0.21875 0  0.03125 0.21875 0  0.0625 0.21875 0  0.09375 0.21875 0  0.125 0.21875 0  0.15625 0.21875 0  0.1875 0.21875 0  0.21875 0.21875 0  0.25 0.21875 0  0.28125 0.21875 0  0.3125 0.21875 0  0.34375 0.21875 0  0.375 0.21875 0  0.40625 0.21875 0  0.4375 0.21875 0  0.46875 0.21875 0  0.5 0.21875 0  0.53125 0.21875 0  0.5625 0.21875 0  0.59375 0.21875 0  0.625 0.21875 0  0.65625 0.21875 0  0.6875 0.21875 0  0.71875 0.21875 0  0.75 0.21875 0  0.78125 0.21875 0  0.8125 0.21875 0  0.84375 0.21875 0  0.875 0.21875 0  0.90625 0.21875 0  0.9375 0.21875 0  0.96875 0.21875 0  1 0.21875 0  0 0.25 0  0.03125 0.25 0  0.0625 0.25 0  0.09375 0.25 0  0.125 0.25 0  0.15625 0.25 0  0.1875 0.25 0  0.21875 0.25 0  0.25 0.25 0  0.28125 0.25 0  0.3125 0.25 0  0.34375 0.25 0  0.375 0.25 0  0.40625 0.25 0  0.4375 0.25 0  0.46875 0.25 0  0.5 0.25 0  0.53125 0.25 0  0.5625 0.25 0  0.59375 0.25 0  0.625 0.25 0  0.65625 0.25 0  0.6875 0.25 0  0.71875 0.25 0  0.75 0.25 0  0.78125 0.25 0  0.8125 0.25 0  0.84375 0.25 0  0.875 0.25 0  0.90625 0.25 0  0.9375 0.25 0  0.96875 0.25 0  1 0.25 0  0 0.28125 0  0.03125 0.28125 0  0.0625 0.28125 0  0.09375 0.28125 0  0.125 0.28125 0  0.15625 0.28125 0  0.1875 0.28125 0  0.21875 0.28125 0  0.25 0.28125 0  0.28125 0.28125 0  0.3125 0.28125 0  0.34375 0.28125 0  0.375 0.28125 0  0.40625 0.28125 0  0.4375 0.28125 0  0.46875 0.28125 0  0.5 0.28125 0  0.53125 0.28125 0  0.5625 0.28125 0  0.59375 0.28125 0  0.625 0.28125 0  0.65625 0.28125 0  0.6875 0.28125 0  0.71875 0.28125 0  0.75 0.28125 0  0.78125 0.28125 0  0.8125 0.28125 0  0.84375 0.28125 0  0.875 0.28125 0  0.90625 0.28125 0  0.9375 0.28125 0  0.96875 0.28125 0  1 0.28125 0  0 0.3125 0  0.03125 0.3125 0  0.0625 0.3125 0  0.09375 0.3125 0  0.125 0.3125 0  0.15625 0.3125 0  0.1875 0.3125 0  0.21875 0.3125 0  0.25 0.3125 0  0.28125 0.3125 0  0.3125 0.3125 0  0.34375 0.3125 0  0.375 0.3125 0  0.40625 0.3125 0  0.4375 0.3125 0  0.46875 0.3125 0  0.5 0.3125 0  0.53125 0.3125 0  0.5625 0.3125 0  0.59375 0.3125 0  0.625 0.3125 0  0.65625 0.3125 0  0.6875 0.3125 0  0.71875 0.3125 0  0.75 0.3125 0  0.78125 0.3125 0  0.8125 0.3125 0  0.84375 0.3125 0  0.875 0.3125 0  0.90625 0.3125 0  0.9375 0.3125 0  0.96875 0.3125 0  1 0.3125 0  0 0.34375 0  0.03125 0.34375 0  0.0625 0.34375 0  0.09375 0.34375 0  0.125 0.34375 0  0.15625 0.34375 0  0.1875 0.34375 0  0.21875 0.34375 0  0.25 0.34375 0  0.28125 0.34375 0  0.3125 0.34375 0  0.34375 0.34375 0  0.375 0.34375 0  0.40625 0.34375 0  0.4375 0.34375 0  0.46875 0.34375 0  0.5 0.34375 0  0.53125 0.34375 0  0.5625 0.34375 0  0.59375 0.34375 0  0.625 0.34375 0  0.65625 0.34375 0  0.6875 0.34375 0  0.71875 0.34375 0  0.75 0.34375 0  0.78125 0.34375 0  0.8125 0.34375 0  0.84375 0.34375 0  0.875 0.34375 0  0.90625 0.34375 0  0.9375 0.34375 0  0.96875 0.34375 0  1 0.34375 0  0 0.375 0  0.03125 0.375 0  0.0625 0.375 0  0.09375 0.375 0  0.125 0.375 0  0.15625 0.375 0  0.1875 0.375 0  0.21875 0.375 0  0.25 0.375 0  0.28125 0.375 0  0.3125 0.375 0  0.34375 0.375 0  0.375 0.375 0  0.40625 0.375 0  0.4375 0.375 0  0.46875 0.375 0  0.5 0.375 0  0.53125 0.375 0  0.5625 0.375 0  0.59375 0.375 0  0.625 0.375 0  0.65625 0.375 0  0.6875 0.375 0  0.71875 0.375 0  0.75 0.375 0  0.78125 0.375 0  0.8125 0.375 0  0.84375 0.375 0  0.875 0.375 0  0.90625 0.375 0  0.9375 0.375 0  0.96875 0.375 0  1 0.375 0  0 0.40625 0  0.03125 0.40625 0  0.0625 0.40625 0  0.09375 0.40625 0  0.125 0.40625 0  0.15625 0.40625 0  0.1875 0.40625 0  0.21875 0.40625 0  0.25 0.40625 0  0.28125 0.40625 0  0.3125 0.40625 0  0.34375 0.40625 0  0.375 0.40625 0  0.40625 0.40625 0  0.4375 0.40625 0  0.46875 0.40625 0  0.5 0.40625 0  0.53125 0.40625 0  0.5625 0.40625 0  0.59375 0.40625 0  0.625 0.40625 0  0.65625 0.40625 0  0.6875 0.40625 0  0.71875 0.40625 0  0.75 0.40625 0  0.78125 0.40625 0  0.8125 0.40625 0  0.84375 0.40625 0  0.875 0.40625 0  0.90625 0.40625 0  0.9375 0.40625 0  0.96875 0.40625 0  1 0.40625 0  0 0.4375 0  0.03125 0.4375 0  0.0625 0.4375 0  0.09375 0.4375 0  0.125 0.4375 0  0.15625 0.4375 0  0.1875 0.4375 0  0.21875 0.4375 0  0.25 0.4375 0  0.28125 0.4375 0  0.3125 0.4375 0  0.34375 0.4375 0  0.375 0.4375 0  0.40625 0.4375 0  0.4375 0.4375 0  0.46875 0.4375 0  0.5 0.4375 0  0.53125 0.4375 0  0.5625 0.4375 0  0.59375 0.4375 0  0.625 0.4375 0  0.65625 0.4375 0  0.6875 0.4375 0  0.71875 0.4375 0  0.75 0.4375 0  0.78125 0.4375 0  0.8125 0.4375 0  0.84375 0.4375 0  0.875 0.4375 0  0.90625 0.4375 0  0.9375 0.4375 0  0.96875 0.4375 0  1 0.4375 0  0 0.46875 0  0.03125 0.46875 0  0.0625 0.46875 0  0.09375 0.46875 0  0.125 0.46875 0  0.15625 0.46875 0  0.1875 0.46875 0  0.21875 0.46875 0  0.25 0.46875 0  0.28125 0.46875 0  0.3125 0.46875 0  0.34375 0.46875 0  0.375 0.46875 0  0.40625 0.46875 0  0.4375 0.46875 0  0.46875 0.46875 0  0.5 0.46875 0  0.53125 0.46875 0  0.5625 0.46875 0  0.59375 0.46875 0  0.625 0.46875 0  0.65625 0.46875 0  0.6875 0.46875 0  0.71875 0.46875 0  0.75 0.46875 0  0.78125 0.46875 0  0.8125 0.46875 0  0.84375 0.46875 0  0.875 0.46875 0  0.90625 0.46875 0  0.9375 0.46875 0  0.96875 0.46875 0  1 0.46875 0  0 0.5 0  0.03125 0.5 0  0.0625 0.5 0  0.09375 0.5 0  0.125 0.5 0  0.15625 0.5 0  0.1875 0.5 0  0.21875 0.5 0  0.25 0.5 0  0.28125 0.5 0  0.3125 0.5 0  0.34375 0.5 0  0.375 0.5 0  0.40625 0.5 0  0.4375 0.5 0  0.46875 0.5 0  0.5 0.5 0  0.53125 0.5 0  0.5625 0.5 0  0.59375 0.5 0  0.625 0.5 0  0.65625 0.5 0  0.6875 0.5 0  0.71875 0.5 0  0.75 0.5 0  0.78125 0.5 0  0.8125 0.5 0  0.84375 0.5 0  0.875 0.5 0  0.90625 0.5 0  0.9375 0.5 0  0.96875 0.5 0  1 0.5 0  0 0.53125 0  0.03125 0.53125 0  0.0625 0.53125 0  0.09375 0.53125 0  0.125 0.53125 0  0.15625 0.53125 0  0.1875 0.53125 0  0.21875 0.53125 0  0.25 0.53125 0  0.28125 0.53125 0  0.3125 0.53125 0  0.34375 0.53125 0  0.375 0.53125 0  0.40625 0.53125 0  0.4375 0.53125 0  0.46875 0.53125 0  0.5 0.53125 0  0.53125 0.53125 0  0.5625 0.53125 0  0.59375 0.53125 0  0.625 0.53125 0  0.65625 0.53125 0  0.6875 0.53125 0  0.71875 0.53125 0  0.75 0.53125 0  0.78125 0.531
[...]
<PointData  Scalars="theta_dt"> 
<DataArray  type="Float64"  Name="theta_dt"  format="ascii">2.2522889257152408e-04  2.2207872483738342e-05  3.2637922608213812e-05  1.9378830310947580e-04  3.2786821418652375e-04  3.7243330717413674e-04  3.2050277258466125e-04  1.7614833644589843e-04  2.6078414856952366e-05  3.2975249898628668e-05  2.3965879391907843e-05  1.4944845941899584e-04  3.9895481159911899e-04  4.0220191500600237e-04  2.6437919323805601e-04  4.6475662822833262e-04  4.8124431352180132e-04  2.3725076842493986e-04  1.9022128319740787e-04  1.2213539047114814e-04  3.4318183979779185e-05  2.4696361728142369e-05  4.1010222896924417e-05  4.3139281458389291e-05  2.4540001661331976e-05  4.5602670931988090e-05  2.5603561924367408e-04  1.6622944860777538e-04  1.4775585525151743e-04  2.2884139339896678e-04  3.2470557789565868e-04  4.0637882248384806e-04  4.4707468726483212e-04  1.7385931652229042e-04  2.3895114371753258e-04  2.4045899286057673e-05  3.4499034155363165e-05  1.9824173238300663e-04  3.2931701372543743e-04  3.7407903304923748e-04  3.2786821418652072e-04  1.8619283918297282e-04  2.8236785745662225e-05  3.4984293478895261e-05  2.6063718878179977e-05  1.3688875906145626e-04  3.9326456623676586e-04  3.4446874934445043e-04  2.8123336966231447e-04  4.4162189587505486e-04  4.9129570229397839e-04  2.2100843727205667e-04  2.0363502323002923e-04  1.2121973778905757e-04  3.6738182365652215e-05  2.3005633861915092e-05  4.1866772641801466e-05  4.0991887166763990e-05  2.6104427032277367e-05  1.8097878899621251e-04  2.5238381344351617e-04  1.5225946809924886e-04  1.6068957916816240e-04  2.4278373905884225e-04  3.5157972153421923e-04  4.2955175319149444e-04  9.4332005809441663e-05  1.9124596969613528e-04  2.4884732600075998e-04  2.5963001956451889e-05  3.5906371680135777e-05  1.9911773230627620e-04  3.2462000405012110e-04  3.6874358797857928e-04  3.2931701372543429e-04  1.9378830310947252e-04  3.0488014394355117e-05  3.6433171019010031e-05  2.8652143617024414e-05  1.2751727179275706e-04  3.8047555680288957e-04  3.7297858495883158e-04  3.0585097113176797e-04  4.1277847132555561e-04  2.8200122655083868e-04  2.1168075041246893e-04  2.1524689870650499e-04  1.2487876663239473e-04  3.8833102935283899e-05  2.2034678402843124e-05  3.1974012696143435e-05  3.8314605049007200e-05  2.8389463057840961e-05  1.9595743519791020e-04  2.4417626247604982e-04  1.4183569278990881e-04  1.7664788826201859e-04  2.5283864860959959e-04  3.7961004865949750e-04  1.7044505261966372e-05  1.0258930375249647e-04  2.0886333787214511e-04  2.5404481332325074e-04  2.7793822108941686e-05  3.6731532353823389e-05  1.9627773960565782e-04  3.1406332376247332e-04  3.5675200360964758e-04  3.2462000405011801e-04  1.9824173238300327e-04  3.2637922608213033e-05  3.7194123316680547e-05  3.1517476886021391e-05  1.2213539047115128e-04  3.6153618157083885e-04  4.0271497504838885e-04  3.3622546311341041e-04  3.8053145864836211e-04  3.0534095947964203e-04  2.1009377348371480e-04  2.2402758039969094e-04  1.3283978935391821e-04  4.0417242442438375e-05  2.1869483758598454e-05  3.4620330678932862e-05  3.5321397697932518e-05  3.1208860736464047e-05  2.1158049499003573e-04  2.3202161607339136e-04  1.3584950084091844e-04  1.9431341018249636e-04  2.5811949969168068e-04  1.3680490137944420e-05  1.8131092656499785e-05  1.1277759242361531e-04  2.2522889257152500e-04  1.1554257627161543e-04  2.9378708619253725e-05  3.6893843382569627e-05  1.8989476468498991e-04  2.9842982765737629e-04  3.3899354333449903e-04  3.1406332376247034e-04  1.9911773230627287e-04  3.4499034155362386e-05  2.9354612189097820e-05  3.4420832157571149e-05  1.2121973778906073e-04  3.3792335423493366e-04  4.3111302752570660e-04  3.6984940477096723e-04  3.4749888545076963e-04  3.2968481794113654e-04  2.1643547320195872e-04  2.2917593542742795e-04  1.4446784401019004e-04  4.1346066978080593e-05  2.2529616120878065e-05  3.7380498955649954e-05  3.2255273653832446e-05  3.4329876327861211e-05  2.2650041198388952e-04  2.1686770717626726e-04  1.3483103306244899e-04  2.1221334759900887e-04  7.1564350753230884e-05  1.4552621531989601e-05  1.9718187437461897e-05  1.2405581969652203e-04  2.3895114371753361e-04  1.2510541720344131e-04  3.0577169969882836e-05  3.6367630851467269e-05  1.8044215166250797e-04  2.7893863327196254e-04  3.1685303177638938e-04  2.9842982765737353e-04  1.9627773960565465e-04  3.5906371680134923e-05  3.1784136404655155e-05  3.7117887644722940e-05  1.2487876663239801e-04  3.1152416085418374e-04  4.5569637626655731e-04  4.0391952475248087e-04  3.1639536646107191e-04  3.5293303899311548e-04  2.3023323695611712e-04  2.3018862886708055e-04  1.5881514967103146e-04  4.1528768930211976e-05  2.3965879391907060e-05  4.0016441090265900e-05  2.9368206792284167e-05  3.7492306739679927e-05  2.3941614002324793e-04  1.9992560338841889e-04  1.3890092009529305e-04  1.1644773930767232e-04  7.7828695088963832e-05  1.5826476898585930e-05  2.1676428485366482e-05  1.3548370522761512e-04  2.4884732600076096e-04  1.3507967212933458e-04  3.1279860801375780e-05  3.5184951266327252e-05  1.6865702588944316e-04  2.5714743467966525e-04  2.9209989070367600e-04  2.7893863327195994e-04  1.8989476468498663e-04  3.6731532353822521e-05  3.4318183979780296e-05  3.9379324756342468e-05  1.3283978935392166e-04  2.8448186405489757e-04  4.7428584191173143e-04  4.3556877034928729e-04  2.8980539013937618e-04  3.7305833195754322e-04  2.5038657110424252e-04  2.2690547563820440e-04  1.7469732372598623e-04  4.0936449003395807e-05  2.6063718878179137e-05  4.2298297735461062e-05  2.6900092508715572e-05  4.0430028615645353e-05  2.4918277048523554e-04  1.8257077771524546e-04  1.1083747385972809e-04  1.2809299650020950e-04  8.5557972737400538e-05  1.7398226675527583e-05  2.3844161291761110e-05  1.4609957496984096e-04  2.5404481332325177e-04  1.4460501847953354e-04  3.1418081726569010e-05  3.3433508939377400e-05  1.5548122911281028e-04  2.3482538675017098e-04  2.6674374523557139e-04  2.5714743467966287e-04  1.8044215166250485e-04  3.6893843382568753e-05  3.6738182365653414e-05  4.1010222896925752e-05  1.4446784401019380e-04  2.5901879803850395e-04  4.8518535658056923e-04  4.6210614745863373e-04  2.6996513778620638e-04  3.8827669972774065e-04  2.7525281517132511e-04  2.1952648317950389e-04  1.9079024885447057e-04  3.9605190920564532e-05  2.8652143617023482e-05  4.4023794784712905e-05  2.5058495899902115e-05  4.2893260575674710e-05  2.5490921437649333e-04  8.7655609400879965e-05  1.1759033596070986e-04  1.3989278231372532e-04  9.4114125079410547e-05  1.9138121546266652e-05  2.6040659178710346e-05  1.5500080889756452e-04  1.7812184945705076e-04  1.5285082728601330e-04  3.0969969337293505e-05  3.1249883305038859e-05  1.4198446040999851e-04  2.1380691393817173e-04  2.4286836176619597e-04  2.3482538675016889e-04  1.6865702588944018e-04  3.6367630851466408e-05  3.8833102935285173e-05  4.1866772641802828e-05  1.5881514967103563e-04  2.3725076842494362e-04  4.8732931653303231e-04  4.8124431352180382e-04  2.5857122767418937e-04  3.9719964705248493e-04  3.0277923899627241e-04  2.0859885757000096e-04  2.0573968079186256e-04  3.7633717172593431e-05  3.1517476886020361e-05  4.5035501132724027e-05  2.4000899159200235e-05  4.4669688672125378e-05  2.4542259560485691e-05  9.4910395268838789e-05  1.2246034989455714e-04  1.5085412672355745e-04  1.0278381466670712e-04  2.0901104232979034e-05  2.8081083489356817e-05  1.6142018080361094e-04  1.9286404205656610e-04  1.5908615271464403e-04  2.9962822332386270e-05  2.8808584998316786e-05  1.2927588335981391e-04  1.9583850674365511e-04  2.2245762041784968e-04  2.1380691393816983e-04  1.5548122911280773e-04  3.5184951266326459e-05  4.0417242442439682e-05  1.6270884268417368e-04  1.7469732372599075e-04  2.2100843727206014e-04  4.8037859604359778e-04  4.9129570229398099e-04  2.5663271143235337e-04  3.9895481159911260e-04  3.3067092914757190e-04  1.9497474729460304e-04  2.1827453605972758e-04  3.5175765490569025e-05  3.4420832157570031e-05  4.5234506130624473e-05  2.3820963699028292e-05  1.5611629372471640e-05  2.5106262729983057e-05  1.0247729763557851e-04  1.2501808730855211e-04  1.6004503553493509e-04  1.1083747385972749e-04  2.2538817045993874e-05  2.9791946050964540e-05  1.6479164296398142e-04  2.0824047550374629e-04  1.6274209540130123e-04  2.8471328003728686e-05  2.6307814901526111e-05  1.1841149329003503e-04  1.8243128408160114e-04  2.0722803712799727e-04  1.9583850674365327e-04  1.4198446040999613e-04  3.3433508939376621e-05  4.1346066978081935e-05  1.7617538316646713e-04  1.9079024885447555e-04  2.1168075041247256e-04  4.6475662822833527e-04  3.4446874934444853e-04  2.6437919323805443e-04  3.9326456623675979e-04  3.5658075723703811e-04  1.7974296176191502e-04  2.2731439484854934e-04  3.2427770053545018e-05  3.7117887644721727e-05  4.4589331711756353e-05  4.3013655199341325e-05  1.4392020198889779e-05  2.5217203468649314e-05  1.0970363848778832e-04  1.1930270465497813e-04  1.6667331452342821e-04  1.1759033596070922e-04  2.3912012573920421e-05  3.1025782073281050e-05  1.7812184945705152e-04  2.2292486599741077e-04  1.6346122785323546e-04  2.6611794749671154e-05  2.3953086139430593e-05  1.1030497081555615e-04  1.7473175046962881e-04  1.9848195366296858e-04  1.8243128408159946e-04  1.2927588335981174e-04  3.1249883305038154e-05  4.1528768930213358e-05  1.9022128319741283e-04  2.0573968079186795e-04  2.1009377348371817e-04  4.4162189587505736e-04  3.7297858495882974e-04  2.8123336966231300e-04  3.8047555680288360e-04  3.7830572621759046e-04  1.6414011893193750e-04  2.3206213999989319e-04  2.9612831462835069e-05  3.9379324756341187e-05  7.7452614599838324e-05  4.4312026305420026e-05  1.3142700464932219e-05  2.4857533473659568e-05  1.1595926666623565e-04  1.2917675129792467e-04  1.7015449494499476e-04  1.2246034989455649e-04  2.4902330642747380e-05  3.1673794296630184e-05  1.9286404205656719e-04  2.3563670575617353e-04  1.6112979966469401e-04  2.4532832443570884e-05  2.1940060473464154e-05  1.0564953666325312e-04  1.7342178130060520e-04  1.9699392850894081e-04  1.7473175046962735e-04  1.1841149329003297e-04  2.8808584998316122e-05  4.0936449003397128e-05  2.0363502323003429e-04  2.1827453605973321e-04  2.1643547320196203e-04  4.1277847132555767e-04  4.0271497504838652e-04  3.0585097113176645e-04  3.6153618157083316e-04  3.9397329058741648e-04  1.4944845941899189e-04  2.9354612189096844e-05  2.6962281189707671e-05  8.1320871058275477e-05  8.0660321332134326e-05  4.7136918460966689e-05  1.1966339185509239e-05  2.4049163593963506e-05  1.2068965496028408e-04  1.3947560067427908e-04  8.7655609400879518e-05  1.2501808730855144e-04  2.5422446932105289e-05  1.1554257627161680e-04  2.0824047550374697e-04  2.4524915973766847e-04  1.5588983983889638e-04  2.2403225114087594e-05  2.0438030658808218e-05  1.0485747892115106e-04  1.7865653358942841e-04  2.0294020821159814e-04  1.7342178130060355e-04  1.1030497081555428e-04  2.6307814901525522e-05  3.9605190920565813e-05  2.1524689870651071e-04  2.2731439484855522e-04  2.3023323695612076e-04  3.8053145864836390e-04  4.3111302752570416e-04  3.3622546311340857e-04  3.3792335423492818e-04  4.0220191500599597e-04  1.3688875906145269e-04  3.1784136404654098e-05  1.0210308839683854e-05  8.1680215561327039e-05  8.2345012923116175e-05  5.1263021542416526e-05  1.0960683890493347e-05  2.2852040348648129e-05  1.2346321163934142e-04  1.4931093254088671e-04  9.4910395268838193e-05  1.7824781407792188e-05  2.2207872483738678e-05  1.2510541720344250e-04  2.2292486599741177e-04  2.5088520572062755e-04  1.4812992959293357e-04  2.0397983753780522e-05  1.9575441192247088e-05  1.0802261148792635e-04  1.9004588953527019e-04  2.1587764867687044e-04  1.7865653358942673e-04  1.0564953666325132e-04  2.3953086139430044e-05  3.7633717172594664e-05  2.2402758039969677e-04  2.3206213999989923e-04  2.5038657110424648e-04  3.4749888545077131e-04  4.5569637626655460e-04  3.6984940477096539e-04  3.1152416085417886e-04  1.6270884268416950e-04  1.2751727179275375e-04  1.1080827232390134e-05  9.7793815648169086e-06  8.0515220292988614e-05  5.7735664049031666e-05  5.6354024624842790e-05  1.0210308839683806e-05  2.1359516749263852e-05  1.2400877670590236e-04  1.5782508658197624e-04  1.0247729763557797e-04  1.9300043209524715e-05  2.4045899286058053e-05  1.3507967212933588e-04  2.3563670575617440e-04  2.5199382910844233e-04  1.3845519541955071e-04  1.8683730125195560e-05  1.9428683523060117e-05  1.1490905413694109e-04  2.0668144731102281e-04  2.3477437465100012e-04  1.9004588953526843e-04  1.0485747892114930e-04  2.1940060473463642e-05  3.5175765490570170e-05  2.2917593542743386e-04  2.8200122655084307e-04  2.7525281517132945e-04  3.1639536646107348e-04  4.7428584191172915e-04  4.0391952475247875e-04  2.8448186405489307e-04  1.7617538316646263e-04  1.0168506500202797e-05  1.1312264153930061e-05  9.7060652481910087e-06  7.7896855964487875e-05  6.2514136099856460e-05  6.1989660958296509e-05  9.7793815648168679e-06  1.9690872051829985e-05  1.2224005416884738e-04  1.6426332962660834e-04  1.0970363848778780e-04  2.0838773948414433e-05  2.5963001956452268e-05  1.4460501847953500e-04  2.4524915973766961e-04  2.4839967088365907e-04  1.2763882113631881e-04  1.7404630656396427e-05  2.0015140107569935e-05  1.2496755218563166e-04  2.2720727379727684e-04  2.5809014943485608e-04  2.0668144731102091e-04  1.0802261148792456e-04  2.0438030658807751e-05  3.2427770053546075e-05  2.3018862886708659e-04  3.0534095947964675e-04  3.0277923899627718e-04  2.8980539013937786e-04  4.8518535658056673e-04  4.3556877034928491e-04  2.5901879803849978e-04  2.8462914628725675e-05  9.5043760466197763e-06  1.3028098165814976e-05  9.9990437131357573e-06  7.4019293377010657e-05  6.7498188300553735e-05  6.7700080278209663e-05  9.7060652481909579e-06  1.7981577964327083e-05  1.1826479338976726e-04  1.6803824848904132e-04  1.1595926666623508e-04  2.2308251451899156e-05  2.7793822108942093e-05  1.5285082728601495e-04  2.5088520572062864e-04  2.4032168469562712e-04  1.1655895216302595e-04  1.6670066190562025e-05  2.1291105505593852e-05  1.3737825631968069e-04  2.4992894409431576e-04  2.8390023546055553e-04  2.2720727379727467e-04  1.1490905413693915e-04  1.9575441192246624e-05  2.9612831462836045e-05  2.2690547563821022e-04  3.2968481794114213e-04  3.3067092914757721e-04  2.6996513778620779e-04  4.8732931653302987e-04  4.6210614745863119e-04  3.6969033320800198e-05  3.1084886988056025e-05  8.7618767251800234e-06  1.4106364155929515e-05  1.0636482857839241e-05  6.9184909204331134e-05  7.2257924620894589e-05  7.3004742064394844e-05  9.9990437131357099e-06  1.6372104164281166e-05  1.1237778893257912e-04  1.6878078383219665e-04  1.2068965496028341e-04  2.3580334386595288e-05  2.9378708619254186e-05  1.5908615271464571e-04  2.5199382910844330e-04  2.2835891210362314e-04  1.0612613141507121e-04  1.6545090204820852e-05  2.3154810196150806e-05  1.5111665207572067e-04  2.7295212326482009e-04  3.1005281259099824e-04  2.4992894409431353e-04  1.2496755218562955e-04  1.9428683523059663e-05  2.6962281189708542e-05  2.1952648317950964e-04  3.5293303899312122e-04  3.5658075723704380e-04  2.5857122767419089e-04  4.8037859604359501e-04  8.5159185077492705e-06  3.5766796057409542e-05  3.3520553407590530e-05  8.0012895839727529e-06  1.5231019469135683e-05  1.1567541275072457e-05  6.3780056967202320e-05  7.6378286676387483e-05  7.7452614599838175e-05  1.0636482857839190e-05  1.4996186852552343e-05  1.0503811599880443e-04  1.6637348344495246e-04  1.2346321163934083e-04  2.4542259560485464e-05  3.0577169969883324e-05  1.6274209540130300e-04  2.4839967088366010e-04  2.1344422351370280e-04  9.7207254526944937e-05  1.7044505261966104e-05  2.5454347104720658e-05  1.6503735169294119e-04  2.9433937556630713e-04  3.3434710145877799e-04  2.7295212326481754e-04  1.3737825631967833e-04  2.0015140107569475e-05  2.4696361728143169e-05  2.0859885757000649e-04  3.7305833195754896e-04  3.7830572621759648e-04  2.5663271143235456e-04  1.0168506500202816e-05  9.3003955450760722e-06  3.3986390564158756e-05  3.5562820042036991e-05  7.2851196250552175e-06  1.6305057726877637e-05  1.2716330139161546e-05  5.8243538625725095e-05  7.9494026915185123e-05  8.0660321332134163e-05  1.1567541275072406e-05  1.3969538827314313e-05  9.6832345365164551e-05  1.6096299841273802e-04  1.2400877670590158e-04  2.5106262729982836e-05  3.1279860801376268e-05  1.6346122785323715e-04  2.4032168469562809e-04  1.9676956856036444e-04  9.0552387067627241e-05  1.8131092656499504e-05  2.7999887451531462e-05  1.7796890700603780e-04  3.1227223838672680e-04  3.5471746710669479e-04  2.9433937556630447e-04  1.5111665207571812e-04  2.1291105505593357e-05  2.3005633861915840e-05  1.9497474729460805e-04  3.8827669972774683e-04  3.9397329058742271e-04  3.7185007112547568e-06  9.5043760466197932e-06  1.0029131059740619e-05  3.1766654855618415e-05  3.7035657309799296e-05  6.6728756453230623e-06  1.7234820677072023e-05  1.3988015926246560e-05  5.3030344899010019e-05  8.1320871058275342e-05  8.2345012923116013e-05  1.2716330139161490e-05  1.3379952812579322e-05  8.8426676231971837e-05  1.5295055563972114e-04  1.2224005416884673e-04  2.5217203468649087e-05  3.1418081726569505e-05  1.6112979966469569e-04  2.2835891210362406e-04  1.7968870696848430e-04  8.6730613015104232e-05  1.9718187437461585e-05  3.0579206257068804e-05  1.8881180558017146e-04  3.2520502014699986e-04  3.6940812168536550e-04  3.1227223838672398e-04  1.6503735169293840e-04  2.3154810196150274e-05  2.2034678402843836e-05  1.7974296176191971e-04  3.9719964705249144e-04  2.0859790519405682e-06  3.7961662446403176e-06  8.7618767251800335e-06  1.0640163923272063e-05  2.9284985405776308e-05  3.7809193286421397e-05  6.2160465412789403e-06  1.7937889921339546e-05  1.5276576553255446e-05  4.8573656323042793e-05  8.1680215561326930e-05  1.3028098165814920e-05  1.3988015926246494e-05  1.3279642905419571e-05  8.0511885944776473e-05  1.4296097438796533e-04  1.1826479338976668e-04  2.4857533473659341e-05  3.0969969337293986e-05  1.5588983983889809e-04  2.1344422351370375e-04  1.6360534283861510e-04  8.6080391010488909e-05  2.1676428485366133e-05  3.2975249898629434e-05  1.9663146283803950e-04  3.3199733331583506e-04  3.7712367185880382e-04  3.2520502014699682e-04  1.7796890700603479e-04  2.5454347104720076e-05  2.1869483758599168e-05  1.6414011893194159e-04  3.7489525441499014e-06  1.9979400628760491e-06  7.9315195861954316e-06  8.0012895839727733e-06  1.1080827232390151e-05  2.6742860695659671e-05  7.9315195861954163e-06  5.9536975723556441e-06  1.8350118744231589e-05  1.6473577672497395e-05  4.5248274422099415e-05  8.0515220292988452e-05  1.4106364155929447e-05  1.5276576553255375e-05  1.3680490137944543e-05  7.3745639128863988e-05  1.3179260037216858e-04  1.1237778893257847e-04  2.4049163593963279e-05  2.9962822332386730e-05  1.4812992959293512e-04  1.9676956856036525e-04  1.4985589308895544e-04  8.8678735465755863e-05  2.3844161291760737e-05  3.4984293478896075e-05  2.0073835661796463e-04  2.6441778136226230e-04  2.3277774598680484e-04  3.3199733331583202e-04  1.8881180558016827e-04  2.7999887451530815e-05  2.2529616120878790e-05  3.5706230488732231e-06  3.7655185925875324e-06  1.9829614463573531e-06  8.5879690319144311e-06  7.2851196250552336e-06  1.1312264153930078e-05  2.4349192369479870e-05  8.5879690319144074e-06  5.9090625232560085e-06  1.8431205114990680e-05  1.7477243621010205e-05  4.3338565725202568e-05  7.7896855964487740e-05  1.5231019469135616e-05  1.6473577672497321e-05  1.4552621531989738e-05  6.8696968054945064e-05  1.2035215669858095e-04  1.0503811599880382e-04  2.2852040348647919e-05  2.8471328003729137e-05  1.3845519541955231e-04  1.7968870696848514e-04  1.3959666797908212e-04  9.4332005809440647e-05  2.6040659178709933e-05  3.6433171019010871e-05  2.3277774598680695e-04  2.8630222659714626e-04  2.5204351475508868e-04  1.4074637805048929e-04  1.9663146283803613e-04  3.0579206257068106e-05  1.9829614463573531e-06  3.7185007112547568e-06  3.7118114455990298e-06  2.0428173185097360e-06  9.272660345