<?xml version="1.0"?>
<VTKFile type="UnstructuredGrid"  version="0.1"  >
<UnstructuredGrid>
<Piece  NumberOfPoints="1089" NumberOfCells="2048">
<Points>
<DataArray  type="Float64"  NumberOfComponents="3"  format="ascii">0 0 0  0.03125 0 0  0.0625 0 0  0.09375 0 0  0.125 0 0  0.15625 0 0  0.1875 0 0  0.21875 0 0  0.25 0 0  0.28125 0 0  0.3125 0 0  0.34375 0 0  0.375 0 0  0.40625 0 0  0.4375 0 0  0.46875 0 0  0.5 0 0  0.53125 0 0  0.5625 0 0  0.59375 0 0  0.625 0 0  0.65625 0 0  0.6875 0 0  0.71875 0 0  0.75 0 0  0.78125 0 0  0.8125 0 0  0.84375 0 0  0.875 0 0  0.90625 0 0  0.9375 0 0  0.96875 0 0  1 0 0  0 0.03125 0  0.03125 0.03125 0  0.0625 0.03125 0  0.09375 0.03125 0  0.125 0.03125 0  0.15625 0.03125 0  0.1875 0.03125 0  0.21875 0.03125 0  0.25 0.03125 0  0.28125 0.03125 0  0.3125 0.03125 0  0.34375 0.03125 0  0.375 0.03125 0  0.40625 0.03125 0  0.4375 0.03125 0  0.46875 0.03125 0  0.5 0.03125 0  0.53125 0.03125 0  0.5625 0.03125 0  0.59375 0.03125 0  0.625 0.03125 0  0.65625 0.03125 0  0.6875 0.03125 0  0.71875 0.03125 0  0.75 0.03125 0  0.78125 0.03125 0  0.8125 0.03125 0  0.84375 0.03125 0  0.875 0.03125 0  0.90625 0.03125 0  0.9375 0.03125 0  0.96875 0.03125 0  1 0.03125 0  0 0.0625 0  0.03125 0.0625 0  0.0625 0.0625 0  0.09375 0.0625 0  0.125 0.0625 0  0.15625 0.0625 0  0.1875 0.0625 0  0.21875 0.0625 0  0.25 0.0625 0  0.28125 0.0625 0  0.3125 0.0625 0  0.34375 0.0625 0  0.375 0.0625 0  0.40625 0.0625 0  0.4375 0.0625 0  0.46875 0.0625 0  0.5 0.0625 0  0.53125 0.0625 0  0.5625 0.0625 0  0.59375 0.0625 0  0.625 0.0625 0  0.65625 0.0625 0  0.6875 0.0625 0  0.71875 0.0625 0  0.75 0.0625 0  0.78125 0.0625 0  0.8125 0.0625 0  0.84375 0.0625 0  0.875 0.0625 0  0.90625 0.0625 0  0.9375 0.0625 0  0.96875 0.0625 0  1 0.0625 0  0 0.09375 0  0.03125 0.09375 0  0.0625 0.09375 0  0.09375 0.09375 0  0.125 0.09375 0  0.15625 0.09375 0  0.1875 0.09375 0  0.21875 0.09375 0  0.25 0.09375 0  0.28125 0.09375 0  0.3125 0.09375 0  0.34375 0.09375 0  0.375 0.09375 0  0.40625 0.09375 0  0.4375 0.09375 0  0.46875 0.09375 0  0.5 0.09375 0  0.53125 0.09375 0  0.5625 0.09375 0  0.59375 0.09375 0  0.625 0.09375 0  0.65625 0.09375 0  0.6875 0.09375 0  0.71875 0.09375 0  0.75 0.09375 0  0.78125 0.09375 0  0.8125 0.09375 0  0.84375 0.09375 0  0.875 0.09375 0  0.90625 0.09375 0  0.9375 0.09375 0  0.96875 0.09375 0  1 0.09375 0  0 0.125 0  0.03125 0.125 0  0.0625 0.125 0  0.09375 0.125 0  0.125 0.125 0  0.15625 0.125 0  0.1875 0.125 0  0.21875 0.125 0  0.25 0.125 0  0.28125 0.125 0  0.3125 0.125 0  0.34375 0.125 0  0.375 0.125 0  0.40625 0.125 0  0.4375 0.125 0  0.46875 0.125 0  0.5 0.125 0  0.53125 0.125 0  0.5625 0.125 0  0.59375 0.125 0  0.625 0.125 0  0.65625 0.125 0  0.6875 0.125 0  0.71875 0.125 0  0.75 0.125 0  0.78125 0.125 0  0.8125 0.125 0  0.84375 0.125 0  0.875 0.125 0  0.90625 0.125 0  0.9375 0.125 0  0.96875 0.125 0  1 0.125 0  0 0.15625 0  0.03125 0.15625 0  0.0625 0.15625 0  0.09375 0.15625 0  0.125 0.15625 0  0.15625 0.15625 0  0.1875 0.15625 0  0.21875 0.15625 0  0.25 0.15625 0  0.28125 0.15625 0  0.3125 0.15625 0  0.34375 0.15625 0  0.375 0.15625 0  0.40625 0.15625 0  0.4375 0.15625 0  0.46875 0.15625 0  0.5 0.15625 0  0.53125 0.15625 0  0.5625 0.15625 0  0.59375 0.15625 0  0.625 0.15625 0  0.65625 0.15625 0  0.6875 0.15625 0  0.71875 0.15625 0  0.75 0.15625 0  0.78125 0.15625 0  0.8125 0.15625 0  0.84375 0.15625 0  0.875 0.15625 0  0.90625 0.15625 0  0.9375 0.15625 0  0.96875 0.15625 0  1 0.15625 0  0 0.1875 0  0.03125 0.1875 0  0.0625 0.1875 0  0.09375 0.1875 0  0.125 0.1875 0  0.15625 0.1875 0  0.1875 0.1875 0  0.21875 0.1875 0  0.25 0.1875 0  0.28125 0.1875 0  0.3125 0.1875 0  0.34375 0.1875 0  0.375 0.1875 0  0.40625 0.1875 0  0.4375 0.1875 0  0.46875 0.1875 0  0.5 0.1875 0  0.53125 0.1875 0  0.5625 0.1875 0  0.59375 0.1875 0  0.625 0.1875 0  0.65625 0.1875 0  0.6875 0.1875 0  0.71875 0.1875 0  0.75 0.1875 0  0.78125 0.1875 0  0.8125 0.1875 0  0.84375 0.1875 0  0.875 0.1875 0  0.90625 0.1875 0  0.9375 0.1875 0  0.96875 0.1875 0  1 0.1875 0  0 0.21875 0  0.03125 0.21875 0  0.0625 0.21875 0  0.09375 0.21875 0  0.125 0.21875 0  0.15625 0.21875 0  0.1875 0.21875 0  0.21875 0.21875 0  0.25 0.21875 0  0.28125 0.21875 0  0.3125 0.21875 0  0.34375 0.21875 0  0.375 0.21875 0  0.40625 0.21875 0  0.4375 0.21875 0  0.46875 0.21875 0  0.5 0.21875 0  0.53125 0.21875 0  0.5625 0.21875 0  0.59375 0.21875 0  0.625 0.21875 0  0.65625 0.21875 0  0.6875 0.21875 0  0.71875 0.21875 0  0.75 0.21875 0  0.78125 0.21875 0  0.8125 0.21875 0  0.84375 0.21875 0  0.875 0.21875 0  0.90625 0.21875 0  0.9375 0.21875 0  0.96875 0.21875 0  1 0.21875 0  0 0.25 0  0.03125 0.25 0  0.0625 0.25 0  0.09375 0.25 0  0.125 0.25 0  0.15625 0.25 0  0.1875 0.25 0  0.21875 0.25 0  0.25 0.25 0  0.28125 0.25 0  0.3125 0.25 0  0.34375 0.25 0  0.375 0.25 0  0.40625 0.25 0  0.4375 0.25 0  0.46875 0.25 0  0.5 0.25 0  0.53125 0.25 0  0.5625 0.25 0  0.59375 0.25 0  0.625 0.25 0  0.65625 0.25 0  0.6875 0.25 0  0.71875 0.25 0  0.75 0.25 0  0.78125 0.25 0  0.8125 0.25 0  0.84375 0.25 0  0.875 0.25 0  0.90625 0.25 0  0.9375 0.25 0  0.96875 0.25 0  1 0.25 0  0 0.28125 0  0.03125 0.28125 0  0.0625 0.28125 0  0.09375 0.28125 0  0.125 0.28125 0  0.15625 0.28125 0  0.1875 0.28125 0  0.21875 0.28125 0  0.25 0.28125 0  0.28125 0.28125 0  0.3125 0.28125 0  0.34375 0.28125 0  0.375 0.28125 0  0.40625 0.28125 0  0.4375 0.28125 0  0.46875 0.28125 0  0.5 0.28125 0  0.53125 0.28125 0  0.5625 0.28125 0  0.59375 0.28125 0  0.625 0.28125 0  0.65625 0.28125 0  0.6875 0.28125 0  0.71875 0.28125 0  0.75 0.28125 0  0.78125 0.28125 0  0.8125 0.28125 0  0.84375 0.28125 0  0.875 0.28125 0  0.90625 0.28125 0  0.9375 0.28125 0  0.96875 0.28125 0  1 0.28125 0  0 0.3125 0  0.03125 0.3125 0  0.0625 0.3125 0  0.09375 0.3125 0  0.125 0.3125 0  0.15625 0.3125 0  0.1875 0.3125 0  0.21875 0.3125 0  0.25 0.3125 0  0.28125 0.3125 0  0.3125 0.3125 0  0.34375 0.3125 0  0.375 0.3125 0  0.40625 0.3125 0  0.4375 0.3125 0  0.46875 0.3125 0  0.5 0.3125 0  0.53125 0.3125 0  0.5625 0.3125 0  0.59375 0.3125 0  0.625 0.3125 0  0.65625 0.3125 0  0.6875 0.3125 0  0.71875 0.3125 0  0.75 0.3125 0  0.78125 0.3125 0  0.8125 0.3125 0  0.84375 0.3125 0  0.875 0.3125 0  0.90625 0.3125 0  0.9375 0.3125 0  0.96875 0.3125 0  1 0.3125 0  0 0.34375 0  0.03125 0.34375 0  0.0625 0.34375 0  0.09375 0.34375 0  0.125 0.34375 0  0.15625 0.34375 0  0.1875 0.34375 0  0.21875 0.34375 0  0.25 0.34375 0  0.28125 0.34375 0  0.3125 0.34375 0  0.34375 0.34375 0  0.375 0.34375 0  0.40625 0.34375 0  0.4375 0.34375 0  0.46875 0.34375 0  0.5 0.34375 0  0.53125 0.34375 0  0.5625 0.34375 0  0.59375 0.34375 0  0.625 0.34375 0  0.65625 0.34375 0  0.6875 0.34375 0  0.71875 0.34375 0  0.75 0.34375 0  0.78125 0.34375 0  0.8125 0.34375 0  0.84375 0.34375 0  0.875 0.34375 0  0.90625 0.34375 0  0.9375 0.34375 0  0.96875 0.34375 0  1 0.34375 0  0 0.375 0  0.03125 0.375 0  0.0625 0.375 0  0.09375 0.375 0  0.125 0.375 0  0.15625 0.375 0  0.1875 0.375 0  0.21875 0.375 0  0.25 0.375 0  0.28125 0.375 0  0.3125 0.375 0  0.34375 0.375 0  0.375 0.375 0  0.40625 0.375 0  0.4375 0.375 0  0.46875 0.375 0  0.5 0.375 0  0.53125 0.375 0  0.5625 0.375 0  0.59375 0.375 0  0.625 0.375 0  0.65625 0.375 0  0.6875 0.375 0  0.71875 0.375 0  0.75 0.375 0  0.78125 0.375 0  0.8125 0.375 0  0.84375 0.375 0  0.875 0.375 0  0.90625 0.375 0  0.9375 0.375 0  0.96875 0.375 0  1 0.375 0  0 0.40625 0  0.03125 0.40625 0  0.0625 0.40625 0  0.09375 0.40625 0  0.125 0.40625 0  0.15625 0.40625 0  0.1875 0.40625 0  0.21875 0.40625 0  0.25 0.40625 0  0.28125 0.40625 0  0.3125 0.40625 0  0.34375 0.40625 0  0.375 0.40625 0  0.40625 0.40625 0  0.4375 0.40625 0  0.46875 0.40625 0  0.5 0.40625 0  0.53125 0.40625 0  0.5625 0.40625 0  0.59375 0.40625 0  0.625 0.40625 0  0.65625 0.40625 0  0.6875 0.40625 0  0.71875 0.40625 0  0.75 0.40625 0  0.78125 0.40625 0  0.8125 0.40625 0  0.84375 0.40625 0  0.875 0.40625 0  0.90625 0.40625 0  0.9375 0.40625 0  0.96875 0.40625 0  1 0.40625 0  0 0.4375 0  0.03125 0.4375 0  0.0625 0.4375 0  0.09375 0.4375 0  0.125 0.4375 0  0.15625 0.4375 0  0.1875 0.4375 0  0.21875 0.4375 0  0.25 0.4375 0  0.28125 0.4375 0  0.3125 0.4375 0  0.34375 0.4375 0  0.375 0.4375 0  0.40625 0.4375 0  0.4375 0.4375 0  0.46875 0.4375 0  0.5 0.4375 0  0.53125 0.4375 0  0.5625 0.4375 0  0.59375 0.4375 0  0.625 0.4375 0  0.65625 0.4375 0  0.6875 0.4375 0  0.71875 0.4375 0  0.75 0.4375 0  0.78125 0.4375 0  0.8125 0.4375 0  0.84375 0.4375 0  0.875 0.4375 0  0.90625 0.4375 0  0.9375 0.4375 0  0.96875 0.4375 0  1 0.4375 0  0 0.46875 0  0.03125 0.46875 0  0.0625 0.46875 0  0.09375 0.46875 0  0.125 0.46875 0  0.15625 0.46875 0  0.1875 0.46875 0  0.21875 0.46875 0  0.25 0.46875 0  0.28125 0.46875 0  0.3125 0.46875 0  0.34375 0.46875 0  0.375 0.46875 0  0.40625 0.46875 0  0.4375 0.46875 0  0.46875 0.46875 0  0.5 0.46875 0  0.53125 0.46875 0  0.5625 0.46875 0  0.59375 0.46875 0  0.625 0.46875 0  0.65625 0.46875 0  0.6875 0.46875 0  0.71875 0.46875 0  0.75 0.46875 0  0.78125 0.46875 0  0.8125 0.46875 0  0.84375 0.46875 0  0.875 0.46875 0  0.90625 0.46875 0  0.9375 0.46875 0  0.96875 0.46875 0  1 0.46875 0  0 0.5 0  0.03125 0.5 0  0.0625 0.5 0  0.09375 0.5 0  0.125 0.5 0  0.15625 0.5 0  0.1875 0.5 0  0.21875 0.5 0  0.25 0.5 0  0.28125 0.5 0  0.3125 0.5 0  0.34375 0.5 0  0.375 0.5 0  0.40625 0.5 0  0.4375 0.5 0  0.46875 0.5 0  0.5 0.5 0  0.53125 0.5 0  0.5625 0.5 0  0.59375 0.5 0  0.625 0.5 0  0.65625 0.5 0  0.6875 0.5 0  0.71875 0.5 0  0.75 0.5 0  0.78125 0.5 0  0.8125 0.5 0  0.84375 0.5 0  0.875 0.5 0  0.90625 0.5 0  0.9375 0.5 0  0.96875 0.5 0  1 0.5 0  0 0.53125 0  0.03125 0.53125 0  0.0625 0.53125 0  0.09375 0.53125 0  0.125 0.53125 0  0.15625 0.53125 0  0.1875 0.53125 0  0.21875 0.53125 0  0.25 0.53125 0  0.28125 0.53125 0  0.3125 0.53125 0  0.34375 0.53125 0  0.375 0.53125 0  0.40625 0.53125 0  0.4375 0.53125 0  0.46875 0.53125 0  0.5 0.53125 0  0.53125 0.53125 0  0.5625 0.53125 0  0.59375 0.53125 0  0.625 0.53125 0  0.65625 0.53125 0  0.6875 0.53125 0  0.71875 0.53125 0  0.75 0.53125 0  0.78125 0.531
[...]
<PointData  Scalars="theta"> 
<DataArray  type="Float64"  Name="theta"  format="ascii">4.3299941812614252e-05  1.0436865373318319e-04  1.1371465167351695e-05  4.3299941812614259e-05  1.7109594308070030e-05  4.2172534904842995e-06  1.7236917172574771e-05  1.4850883764446198e-06  7.3257207379807534e-05  2.2326306756876335e-04  1.0638767598612988e-04  0.0000000000000000e+00  1.2256699960835025e-04  2.7021227456195735e-05  9.8150445167941058e-05  3.8459253242470179e-05  2.6134752733468490e-05  1.6166025751052845e-05  6.1576451778188318e-06  3.1436072717880866e-05  2.1311596952892774e-05  1.1024078517802557e-05  4.1274671912781503e-06  1.5738572036307877e-04  1.1920259596306572e-04  8.6490634846043187e-05  5.1123952925107819e-05  3.1571001420522269e-05  9.5073918647248010e-06  2.8138937122103644e-04  2.4920591480459211e-04  2.2724518677851726e-04  2.1488154430025034e-04  2.2302529773079893e-06  4.0483315004212342e-05  1.0182286056163306e-04  7.7433714045286429e-06  4.0483315004212342e-05  1.6625870031947590e-05  3.8841475067714903e-06  1.6722149762205448e-05  7.5385722232435743e-07  6.9546379574175301e-05  2.1766339451313591e-04  1.0053108499025153e-04  2.2326306756876332e-04  1.1747733190424371e-04  2.2298159006972447e-05  9.5849787665810854e-05  3.6040382666864193e-05  2.5359106570229423e-05  1.5564752607519076e-05  5.7582886432297246e-06  3.0503090131835459e-05  2.0733350232743390e-05  1.0284414657258593e-05  3.4060229083368063e-06  1.5250918763449317e-04  1.1635175579367638e-04  8.1729366507658034e-05  4.7829452072314247e-05  2.8657661147070586e-05  4.8261208803272205e-06  2.7339453515046912e-04  2.4149710396763745e-04  2.2082048660752025e-04  1.5765536068928911e-05  1.7177307346588116e-06  3.7782188240562229e-05  9.9415826604746629e-05  3.9306727808474652e-06  3.7782188240562229e-05  1.6178719115631561e-05  3.5257222794947710e-06  1.6166025751052851e-05  0.0000000000000000e+00  6.5717884434727435e-05  2.1182030444825490e-04  9.4594876913483094e-05  2.1766339451313588e-04  1.1206426689773672e-04  1.7173941002342352e-05  9.3557451473822220e-05  3.3806778626704502e-05  2.4584208503783711e-05  1.4918416979478617e-05  5.3544301069582921e-06  2.9571007390737350e-05  2.0114164510567337e-05  9.6056159752261892e-06  2.6233034064431950e-06  1.4779154487993098e-04  1.1342667478989086e-04  7.6903371387651391e-05  4.4821248726927424e-05  2.5471428770321108e-05  0.0000000000000000e+00  2.6528053367501510e-04  2.3415145350262148e-04  5.2037175953715741e-06  1.5380978132858250e-05  1.1696845442243662e-06  3.5235963195125462e-05  9.7085508419053924e-05  0.0000000000000000e+00  3.5235963195125462e-05  1.5765536068928907e-05  3.1337234202472663e-06  1.5564752607519083e-05  1.4594865333891015e-04  6.1837343043898989e-05  2.0580206501322236e-04  8.8688009196825961e-05  2.1182030444825487e-04  1.0638767598612986e-04  1.1694553138359611e-05  9.1205418862007218e-05  3.1697805570122637e-05  2.3822476771714844e-05  1.4231013208937429e-05  4.9315025518506199e-06  2.8654761717206688e-05  1.9445233182498387e-05  8.9866163045953129e-06  1.7863320411142383e-06  1.4329614923113605e-04  1.1034907329340600e-04  7.2101229278335270e-05  4.2043450190023651e-05  2.1967611336019735e-05  2.9659033095857527e-04  2.5717435800825161e-04  1.5694062436414985e-05  4.8545725997551675e-06  1.5017380641570838e-05  5.9375263822058111e-07  3.2871795657239798e-05  9.4763618824028790e-05  1.0900321161994460e-04  3.2871795657239798e-05  1.5380978132858246e-05  2.7026524012970214e-06  1.4918416979478624e-05  1.4228810728215898e-04  5.7975981654910313e-05  1.9969412193290541e-04  8.2918924670832383e-05  2.0580206501322234e-04  1.0053108499025153e-04  5.9363627680625975e-06  8.8730745826786953e-05  2.9642031744088795e-05  2.3085564217914130e-05  1.3510144349655733e-05  4.4764284538970153e-06  2.7768369683417426e-05  1.8721994418535237e-05  8.4214087168036143e-06  9.0677385401622043e-07  1.3906964791191113e-04  1.0705358221880241e-04  6.7411101606040580e-05  3.9420647685366764e-05  1.8127869704217417e-05  2.8915153284962762e-04  3.8996207932222063e-05  1.5272761369669448e-05  4.5341579147814660e-06  1.4665371545980308e-05  0.0000000000000000e+00  3.0702169838776281e-05  9.2381263187181543e-05  1.0626929618228688e-04  3.0702169838776281e-05  1.5017380641570835e-05  2.2302529773079884e-06  1.4231013208937436e-05  1.3846843779721519e-04  5.4204690116475357e-05  1.9359206985398696e-04  7.7386410186330114e-05  1.9969412193290538e-04  9.4594876913483094e-05  0.0000000000000000e+00  8.6080869645791702e-05  2.7563082894181093e-05  2.2383367451383952e-05  1.2766417324717939e-05  3.9787276401839857e-06  2.6923735382108929e-05  1.7944552442693723e-05  7.8994916021170737e-06  0.0000000000000000e+00  1.3513785598537421e-04  1.0349333019389033e-04  6.2913299716638320e-05  3.6864005852934543e-05  1.3962003082901592e-05  8.5971379558343113e-06  3.7376867157548061e-05  1.4838831605494081e-05  4.2419702754799670e-06  1.4314635641577233e-05  1.0900321161994459e-04  2.8723677978715401e-05  8.9874686014230950e-05  1.0341653782062701e-04  2.8723677978715401e-05  1.4665371545980305e-05  1.7177307346588112e-06  1.3510144349655738e-05  1.3453427192473567e-04  5.0588046094765724e-05  1.8759369806739973e-04  7.2171169223094045e-05  1.9359206985398693e-04  8.8688009196825961e-05  1.4594865333891004e-04  8.3218101449616423e-05  2.5385972160301657e-05  2.1723172934158118e-05  1.2012579746602317e-05  3.4314189125221546e-06  2.6129623302185564e-05  1.7117711831739517e-05  7.4066964992911640e-06  1.8150753151347066e-04  1.3150333845235310e-04  9.9644037798917760e-05  5.8673433608047084e-05  3.4278542642025179e-05  4.5534859510265723e-05  7.0944352714856522e-06  3.5654633528439949e-05  1.4398433989372287e-05  3.9751742194758718e-06  1.3954765964444570e-05  1.0626929618228686e-04  2.6917120294200314e-05  8.7190646930321430e-05  1.0047826668666842e-04  2.6917120294200314e-05  1.4314635641577229e-05  1.1696845442243657e-06  1.2766417324717944e-05  1.3054146614207565e-04  4.7178806027830812e-05  1.8179076865563074e-04  6.7328822938883586e-05  1.8759369806739971e-04  8.2918924670832383e-05  1.4228810728215890e-04  8.0122918364542835e-05  2.3043380169309102e-05  2.1109013070782399e-05  1.1262468093474717e-05  2.8316376321167976e-06  2.5390883803772086e-05  1.6250617885546752e-05  6.9263322429411501e-06  1.7695513131276843e-04  1.2814491745221247e-04  9.5506259745179944e-05  5.4736721950577078e-05  2.8000163871940291e-06  4.4390113978451758e-05  5.4641018910724002e-06  3.3848555870974791e-05  1.3958461128841423e-05  3.7288126511475943e-06  1.3576131849543248e-05  1.0341653782062700e-04  2.5248930774840214e-05  8.4290971171199105e-05  9.7496199749236835e-05  2.5248930774840214e-05  1.3954765964444566e-05  5.9375263822058100e-07  1.2012579746602323e-05  1.2655251134887971e-04  4.4013329861632739e-05  1.7626121396378732e-04  6.2884941804486615e-05  1.8179076865563071e-04  7.7386410186330114e-05  1.3846843779721511e-04  7.6795766429178043e-05  2.0481357972577785e-05  2.0541288523496153e-05  1.0529853493248843e-05  2.1809144700591635e-06  2.4707998821686095e-05  1.5356029095033454e-05  6.4405527736099801e-06  1.7220483890822286e-04  1.2501916614518979e-04  9.1105567423103745e-05  1.0572018848780985e-05  2.5416336897787215e-06  4.3185678765462579e-05  3.7207668239830377e-06  3.1985208958844849e-05  1.3525963870650180e-05  3.4961976036996843e-06  1.3170691006203743e-05  1.0047826668666840e-04  2.3673823152205739e-05  8.1155884169106438e-05  9.4517008961806615e-05  2.3673823152205739e-05  1.3576131849543245e-05  0.0000000000000000e+00  1.1262468093474721e-05  1.2263133309932940e-04  4.1108333194579112e-05  1.7106241233971504e-04  5.8832545959700356e-05  1.7626121396378732e-04  7.2171169223094045e-05  1.3453427192473559e-04  7.3257207379807506e-05  1.7663968347928912e-05  2.0016691235251244e-05  9.8272808633896128e-06  1.4850883764446192e-06  2.4076989274013918e-05  1.4449278869967566e-05  5.9318362185941601e-06  1.6731215425686046e-04  1.2206378484365042e-04  1.5338854468043444e-06  1.0319179254457176e-05  2.2590483276778089e-06  4.1895971342692733e-05  1.8887272887823803e-06  3.0096530887012314e-05  1.3107558485095489e-05  3.2694503133098830e-06  1.2732676898198561e-05  9.7496199749236821e-05  2.2138447907039502e-05  7.7785837713097974e-05  9.1588437763943386e-05  2.2138447907039502e-05  1.3170691006203740e-05  2.8352121078330381e-05  1.0529853493248846e-05  1.1883791691862774e-04  3.8459253242470192e-05  1.6622611756317800e-04  5.5132309935544894e-05  1.7106241233971501e-04  6.7328822938883586e-05  1.3054146614207556e-04  6.9546379574175261e-05  1.4576464949816162e-05  1.9528437779438700e-05  9.1649987185973625e-06  7.5385722232435701e-07  2.3489695745806018e-05  1.3547010357434387e-05  5.3844523354869189e-06  1.6234654268838344e-04  5.9063730541179762e-06  1.3633441228717586e-06  1.0059755277517840e-05  1.9482965050446928e-06  4.0502648356978741e-05  0.0000000000000000e+00  2.8217187813893646e-05  1.2708864084626949e-05  3.0401468692218633e-06  1.2259102453738639e-05  9.4517008961806601e-05  2.0585764163481350e-05  7.4201658626788717e-05  8.8755286945159446e-05  2.0585764163481350e-05  1.2732676898198557e-05  2.7641019998330589e-05  9.8272808633896162e-06  1.1522320773440569e-04  3.6040382666864207e-05  1.6175548470960668e-04  5.1715483001335103e-05  1.6622611756317797e-04  6.2884941804486615e-05  1.2655251134887963e-04  6.5717884434727408e-05  1.1226727237552490e-05  1.9066796723581694e-05  8.5500703757766084e-06  0.0000000000000000e+00  2.2934412826182460e-05  1.2665788098254997e-05  4.7857950942575016e-06  1.6980825148427215e-06  5.7299837188729833e-06  1.1758042345622204e-06  9.7868043340672806e-06  1.6077517326939217e-06  3.8996207932222070e-05  7.1033908265011374e-05  2.6381682168221600e-05  1.2334017788283801e-05  2.8000163871940283e-06  1.1750035918378368e-05  9.1588437763943372e-05  1.8959767234999619e-05  7.0442989849957684e-05  8.6055605234240440e-05  1.8959767234999619e-05  1.2259102453738636e-05  2.6899007453241499e-05  9.1649987185973659e-06  1.1182471418026780e-04  3.3806778626704515e-05  1.5762446398321273e-04  4.8489308704687399e-05  1.6175548470960668e-04  5.8832545959700356e-05  1.2263133309932931e-04  6.1837343043898962e-05  7.6448124650899852e-06  1.8619868858418754e-05  7.9857430226136127e-06  3.4103224507770937e-05  2.2396827603464160e-05  1.1820701691389406e-05  1.4597400653143647e-05  8.6197682792558697e-07  5.5394232003455820e-06  9.7028418956327964e-07  9.4945288724867839e-06  1.2382830974998986e-06  3.7376867157548068e-05  6.9252302975435275e-05  2.4621444209267900e-05  1.1985309121152821e-05  2.5416336897787207e-06  1.1208623313716747e-05  8.8755286945159433e-05  1.7210178974391307e-05  6.6565136740996100e-05  8.3517406329379791e-05  1.7210178974391307e-05  1.1750035918378365e-05  2.6134752733468504e-05  8.5500703757766118e-06  1.0866319392762596e-04  3.1697805570122658e-05  1.5377963826472091e-04  4.5344515243920837e-05  1.5762446398321273e-04  5.5132309935544894e-05  1.1883791691862765e-04  5.7975981654910293e-05  3.8806425136263734e-06  1.8174557498699799e-05  7.4711302884079600e-06  3.3247879692053206e-05  2.1861186787230363e-05  2.7239140719114226e-05  1.3735446286835766e-05  0.0000000000000000e+00  5.3333919560356598e-06  7.4730848505720850e-07  9.1787718941283314e-06  8.4320584786392455e-07  3.5654633528439955e-05  6.7393251551602611e-05  2.2962150747986659e-05  1.1662965571879535e-05  2.2590483276778080e-06  1.0640852953051012e-05  8.6055605234240426e-05  1.5296707069742729e-05  6.2634566386648367e-05  8.1156193305103227e-05  1.5296707069742726e-05  1.1208623313716744e-05  2.5359106570229437e-05  7.9857430226136161e-06  1.0574070947170286e-04  2.9642031744088808e-05  1.5014437591656830e-04  4.2164270089680667e-05  1.5377963826472091e-04  5.1715483001335103e-05  1.1522320773440561e-04  5.4204690116475344e-05  0.0000000000000000e+00  1.7717649456968781e-05  7.0012382416951990e-06  3.2355353156107491e-05  2.1099683424223339e-06  2.6396538795602534e-05  1.2877752224610880e-05  9.7150901340165065e-06  5.1119196765581836e-06  5.0887788586536861e-07  8.8373800693502175e-06  4.2802625648457963e-07  3.3848555870974798e-05  6.5478474187839546e-05  2.1421498344139870e-05  1.1365108886555084e-05  1.9482965050446924e-06  1.0055079055692557e-05  8.3517406329379777e-05  1.3192511447202079e-05  5.8723423307784889e-05  7.8973506556598281e-05  1.3192511447202078e-05  1.0640852953051008e-05  2.4584208503783724e-05  7.4711302884079625e-06  1.0304023187593287e-04  2.7563082894181103e-05  1.4662497481488141e-04  3.8833863061161565e-05  1.5014437591656830e-04  4.8489308704687399e-05  1.1182471418026772e-04  5.0588046094765711e-05  2.8352121078330368e-05  1.7236917172574764e-05  6.5673362443906969e-06  5.7299837188729833e-06  1.9731255038063903e-06  2.5593631662170764e-05  1.2040064675173352e-05  9.4714254336751080e-06  4.8763750564283485e-06  2.5831544817498859e-07  8.4704025952208584e-06  0.0000000000000000e+00  3.1985208958844856e-05  6.3535156499070817e-05  2.0007622559493368e-05  1.1087887560396343e-05  1.6077517326939213e-06  9.4613418896335690e-06  8.1156193305103214e-05  1.0886578651095505e-05  5.4903511283754056e-05  7.6956627852256323e-05  1.0886578651095502e-05  1.0055079055692554e-05  2.3822476771714858e-05  7.0012382416952024e-06  1.0052684198996861e-04  2.5385972160301664e-05  1.4311830312991675e-04  3.5250313216706934e-05  1.4662497481488141e-04  4.5344515243920837e-05  1.0866319392762590e-04  4.7178806027830792e-05  2.7641019998330576e-05  1.6722149762205441e-05  8.9552904255173516e-06  5.5394232003455820e-06  1.8347400168641910e-06  2.4838750818796237e-05  1.1236727771394471e-05  9.2171686626844827e-06  4.6293633452629347e-06  0.0000000000000000e+00  8.0801073856174497e-06  7.1033908265011387e-05  3.0096530887012324e-05  6.1593713105309711e-05  1.8718302665134206e-05  1.0825776265144938e-05  1.2382830974998982e-06  8.8705393346997879e-06  7.8973506556598267e-05  8.3847935344263822e-06  5.1240240533039020e-05  7.5079477475356268e-05  8.3847935344263805e-06  9.4613418896335656e-06  2.3085564217914143e-05  6.5673362443906994e-06  9.8150445167941112e-05  2.3043380169309108e-05  1.3952031161768133e-04  3.1331092848888722e-05  1.4311830312991675e-04  4.2164270089680667e-05  1.0574070947170280e-04  4.4013329861632726e-05  2.6899007453241486e-05  7.0521235562658835e-07  8.6895088154870879e-06  5.3333919560356598e-06  1.6898203719925195e-06  2.4136507004988171e-05  1.0479459889023303e-05  8.9552904255173516e-06  4.3745190934902871e-06  1.6097812542192298e-05  7.6708113145347798e-06  6.9252302975435288e-05  2.8217187813893657e-05  5.9685256879800595e-05  1.7541026776376669e-05  1.0572018848780983e-05  8.4320584786392423e-07  8.2935177995849205e-06  7.6956627852256310e-05  5.7096046579611238e-06  4.7787047643608685e-05  7.3304641738551501e-05  5.7096046579611221e-06  8.8705393346997845e-06  2.2383367451383966e-05  6.1576451778188344e-06  9.5849787665810908e-05  2.0481357972577791e-05  1.3573471250160040e-04  2.7021227456195735e-05  1.3952031161768133e-04  3.8833863061161565e-05  1.0304023187593282e-04  4.1108333194579098e-05  1.7085511874272113e-06  6.5947552695920239e-07  8.4239835470460946e-06  5.1119196765581836e-06  1.5338854468043444e-06  2.3487358346709837e-05  9.7763373790182070e-06  8.6895088154870879e-06  4.1162103765668319e-06  1.5694062436414985e-05  7.2485367976852620e-06  6.7393251551602624e-05  2.6381682168221610e-05  5.7838983064822313e-05  1.6453920997328257e-05  1.0319179254457175e-05  4.2802625648457953e-07  7.7401579057388627e-06  7.5079477475356254e-05  2.8982966780235207e-06  4.4580761323442355e-05  7.1586372670406201e-05  2.8982966780235203e-06  8.2935177995849171e-06  2.1723172934158132e-05  5.7582886432297272e-06  9.3557451473822275e-05  1.7663968347928918e-05  1.3168109863595832e-04  2.2298159006972451e-05  1.3573471250160040e-04  3.5250313216706934e-05  1.0052684198996856e-04  2.4878747498744096e-06  1.6298253728843113e-06  6.1322310066971513e-07  8.1629698326032055e-06  4.8763750564283485e-06  1.3633441228717586e-06  2.2887522339215629e-05  9.1310731467657706e-06  8.4239835470460946e-06  3.8591783788345515e-06  1.5272761369669448e-05  6.8205216948208608e-06  6.5478474187839560e-05  2.4621444209267911e-05  5.6079686800536266e-05  1.5427473714620255e-05  1.0059755277517836e-05  0.0000000000000000e+00  7.2185315830456376e-06  7.3304641738551488e-05  0.0000000000000000e+00  4.1638312672852809e-05  6.9874318455975297e-05  0.0000000000000000e+00  7.7401579057388593e-06  2.1109013070782413e-05  5.3544301069582946e-06  9.1205418862007272e-05  1.4576464949816169e-05  1.2730181595952138e-04  1.7173941002342355e-05  1.3168109863595832e-04  3.1331092848888716e-05  1.7008168577799613e-07  2.4175372894532310e-06  1.5472669253493443e-06  5.6478677009463597e-07  7.9104606160517149e-06  4.6293633452629347e-06  1.1758042345622204e-06  2.2329242664229747e-05  8.5426536966303637e-06  8.1629698326032055e-06  3.6081418918279157e-06  1.4838831605494081e-05  6.3946221035909418e-06  6.3535156499070831e-05  2.2962150747986669e-05  5.4425623718479020e-05  1.4426918752095172e-05  9.7868043340672789e-06  2.2330683040355465e-05  6.7342020375374334e-06  7.1586372670406188e-05  1.4783026188735650e-04  3.8955080083022518e-05  6.8117679373274487e-05  2.2330683040355458e-05  7.2185315830456351e-06  2.0541288523496163e-05  4.9315025518506224e-06  8.8730745826787007e-05  1.1226727237552493e-05  1.2256699960835025e-04  1.1694553138359613e-05  1.2730181595952138e-04  8.0182595296563387e-07  8.6336482893902497e-08  2.3525178942498542e-06  1.4620906165407685e-06  5.1266881471803452e-07  7.6698470527910227e-06  4.3745190934902871e-06  9.7028418956327964e-07  2.1801392189121304e-05  8.0053688582042162e-06  7.9104606160517149e-06  3.3673995358709132e-06  1.4398433989372287e-05  5.9786570169744377e-06  6.1593713105309724e-05  2.1421498344139880e-05  5.2886896676697785e-05  1.3415084394507275e-05  9.4945288724867822e-06  2.1770605972990428e-05  6.2897268175117539e-06  6.9874318455975283e-05  1.4412252310498031e-04  3.6505024789719428e-05  6.6269445063623825e-05  2.1770605972990421e-05  6.7342020375374317e-06  2.0016691235251254e-05  4.4764284538970170e-06  8.6080869645791756e-05  7.6448124650899869e-06  1.1747733190424371e-04  5.9363627680625992e-06  1.5472669253493443e-06  7.5213276006578281e-07  0.0000000000000000e+00  2.2924377047106512e-06  1.3757563834255257e-06  4.5566897905030916e-07  7.4436259096492982e-06  4.1162103765668319e-06  7.4730848505720850e-07  2.1290365097894542e-05  7.5092358290426450e-06  7.6698470527910227e-06  3.1404630497776694e-06  1.3958461128841423e-05  5.5797492082252310e-06  5.9685256879800602e-05  2.0007622559493378e-05  5.1464509501491026e-05  1.2355474178070054e-05  9.1787718941283297e-06  2.1186182433369748e-05  5.8844078001328303e-06  6.8117679373274473e-05  1.4025360943318939e-04  3.4242624536921516e-05  6.4290358532054776e-05  2.1186182433369742e-05  6.2897268175117522e-06  1.9528437779438707e-05  3.9787276401839874e-06  8.3218101449616464e-05  3.8806425136263742e-06  1.1206426689773672e-04  2.1324647978100790e-06  1.4620906165407685e-06  7.0521235562658835e-07  3.2470636932253371e-06  2.2365198400443482e-06  1.2898488667354448e-06  3.9298773225165725e-07  7.2331789235876218e-06  3.8591783788345515e-06  5.0887788586536861e-07  2.0781186354330523e-05  7.0407861073510199e-06  7.4436259096492982e-06  2.9297527378415711e-06  1.3525963870650180e-05  5.2037175953715758e-06  5.7838983064822320e-05  1.8718302665134216e-05  5.0150174127911382e-05  1.1215323441604492e-05  8.8373800693502158e-06  2.0584240523549453e-05  5.5143116676658170e-06  6.6269445063623812e-05  1.3626872325622394e-04  3.2106462043226508e-05  6.2152271469463510e-05  2.0584240523549443e-05  5.8844078001328286e-06  1.9066796723581701e-05  3.4314189125221563e-06  8.0122918364542876e-05  0.0000000000000000e+00  2.6439043908747757e-06  2.0814649327795441e-06  1.3757563834255257e-06  6.5947552695920239e-07  3.165623913368957