<?xml version="1.0"?>
<VTKFile type="UnstructuredGrid"  version="0.1"  >
<UnstructuredGrid>
<Piece  NumberOfPoints="1089" NumberOfCells="2048">
<Points>
<DataArray  type="Float64"  NumberOfComponents="3"  format="ascii">0 0 0  0.03125 0 0  0.0625 0 0  0.09375 0 0  0.125 0 0  0.15625 0 0  0.1875 0 0  0.21875 0 0  0.25 0 0  0.28125 0 0  0.3125 0 0  0.34375 0 0  0.375 0 0  0.40625 0 0  0.4375 0 0  0.46875 0 0  0.5 0 0  0.53125 0 0  0.5625 0 0  0.59375 0 0  0.625 0 0  0.65625 0 0  0.6875 0 0  0.71875 0 0  0.75 0 0  0.78125 0 0  0.8125 0 0  0.84375 0 0  0.875 0 0  0.90625 0 0  0.9375 0 0  0.96875 0 0  1 0 0  0 0.03125 0  0.03125 0.03125 0  0.0625 0.03125 0  0.09375 0.03125 0  0.125 0.03125 0  0.15625 0.03125 0  0.1875 0.03125 0  0.21875 0.03125 0  0.25 0.03125 0  0.28125 0.03125 0  0.3125 0.03125 0  0.34375 0.03125 0  0.375 0.03125 0  0.40625 0.03125 0  0.4375 0.03125 0  0.46875 0.03125 0  0.5 0.03125 0  0.53125 0.03125 0  0.5625 0.03125 0  0.59375 0.03125 0  0.625 0.03125 0  0.65625 0.03125 0  0.6875 0.03125 0  0.71875 0.03125 0  0.75 0.03125 0  0.78125 0.03125 0  0.8125 0.03125 0  0.84375 0.03125 0  0.875 0.03125 0  0.90625 0.03125 0  0.9375 0.03125 0  0.96875 0.03125 0  1 0.03125 0  0 0.0625 0  0.03125 0.0625 0  0.0625 0.0625 0  0.09375 0.0625 0  0.125 0.0625 0  0.15625 0.0625 0  0.1875 0.0625 0  0.21875 0.0625 0  0.25 0.0625 0  0.28125 0.0625 0  0.3125 0.0625 0  0.34375 0.0625 0  0.375 0.0625 0  0.40625 0.0625 0  0.4375 0.0625 0  0.46875 0.0625 0  0.5 0.0625 0  0.53125 0.0625 0  0.5625 0.0625 0  0.59375 0.0625 0  0.625 0.0625 0  0.65625 0.0625 0  0.6875 0.0625 0  0.71875 0.0625 0  0.75 0.0625 0  0.78125 0.0625 0  0.8125 0.0625 0  0.84375 0.0625 0  0.875 0.0625 0  0.90625 0.0625 0  0.9375 0.0625 0  0.96875 0.0625 0  1 0.0625 0  0 0.09375 0  0.03125 0.09375 0  0.0625 0.09375 0  0.09375 0.09375 0  0.125 0.09375 0  0.15625 0.09375 0  0.1875 0.09375 0  0.21875 0.09375 0  0.25 0.09375 0  0.28125 0.09375 0  0.3125 0.09375 0  0.34375 0.09375 0  0.375 0.09375 0  0.40625 0.09375 0  0.4375 0.09375 0  0.46875 0.09375 0  0.5 0.09375 0  0.53125 0.09375 0  0.5625 0.09375 0  0.59375 0.09375 0  0.625 0.09375 0  0.65625 0.09375 0  0.6875 0.09375 0  0.71875 0.09375 0  0.75 0.09375 0  0.78125 0.09375 0  0.8125 0.09375 0  0.84375 0.09375 0  0.875 0.09375 0  0.90625 0.09375 0  0.9375 0.09375 0  0.96875 0.09375 0  1 0.09375 0  0 0.125 0  0.03125 0.125 0  0.0625 0.125 0  0.09375 0.125 0  0.125 0.125 0  0.15625 0.125 0  0.1875 0.125 0  0.21875 0.125 0  0.25 0.125 0  0.28125 0.125 0  0.3125 0.125 0  0.34375 0.125 0  0.375 0.125 0  0.40625 0.125 0  0.4375 0.125 0  0.46875 0.125 0  0.5 0.125 0  0.53125 0.125 0  0.5625 0.125 0  0.59375 0.125 0  0.625 0.125 0  0.65625 0.125 0  0.6875 0.125 0  0.71875 0.125 0  0.75 0.125 0  0.78125 0.125 0  0.8125 0.125 0  0.84375 0.125 0  0.875 0.125 0  0.90625 0.125 0  0.9375 0.125 0  0.96875 0.125 0  1 0.125 0  0 0.15625 0  0.03125 0.15625 0  0.0625 0.15625 0  0.09375 0.15625 0  0.125 0.15625 0  0.15625 0.15625 0  0.1875 0.15625 0  0.21875 0.15625 0  0.25 0.15625 0  0.28125 0.15625 0  0.3125 0.15625 0  0.34375 0.15625 0  0.375 0.15625 0  0.40625 0.15625 0  0.4375 0.15625 0  0.46875 0.15625 0  0.5 0.15625 0  0.53125 0.15625 0  0.5625 0.15625 0  0.59375 0.15625 0  0.625 0.15625 0  0.65625 0.15625 0  0.6875 0.15625 0  0.71875 0.15625 0  0.75 0.15625 0  0.78125 0.15625 0  0.8125 0.15625 0  0.84375 0.15625 0  0.875 0.15625 0  0.90625 0.15625 0  0.9375 0.15625 0  0.96875 0.15625 0  1 0.15625 0  0 0.1875 0  0.03125 0.1875 0  0.0625 0.1875 0  0.09375 0.1875 0  0.125 0.1875 0  0.15625 0.1875 0  0.1875 0.1875 0  0.21875 0.1875 0  0.25 0.1875 0  0.28125 0.1875 0  0.3125 0.1875 0  0.34375 0.1875 0  0.375 0.1875 0  0.40625 0.1875 0  0.4375 0.1875 0  0.46875 0.1875 0  0.5 0.1875 0  0.53125 0.1875 0  0.5625 0.1875 0  0.59375 0.1875 0  0.625 0.1875 0  0.65625 0.1875 0  0.6875 0.1875 0  0.71875 0.1875 0  0.75 0.1875 0  0.78125 0.1875 0  0.8125 0.1875 0  0.84375 0.1875 0  0.875 0.1875 0  0.90625 0.1875 0  0.9375 0.1875 0  0.96875 0.1875 0  1 0.1875 0  0 0.21875 0  0.03125 0.21875 0  0.0625 0.21875 0  0.09375 0.21875 0  0.125 0.21875 0  0.15625 0.21875 0  0.1875 0.21875 0  0.21875 0.21875 0  0.25 0.21875 0  0.28125 0.21875 0  0.3125 0.21875 0  0.34375 0.21875 0  0.375 0.21875 0  0.40625 0.21875 0  0.4375 0.21875 0  0.46875 0.21875 0  0.5 0.21875 0  0.53125 0.21875 0  0.5625 0.21875 0  0.59375 0.21875 0  0.625 0.21875 0  0.65625 0.21875 0  0.6875 0.21875 0  0.71875 0.21875 0  0.75 0.21875 0  0.78125 0.21875 0  0.8125 0.21875 0  0.84375 0.21875 0  0.875 0.21875 0  0.90625 0.21875 0  0.9375 0.21875 0  0.96875 0.21875 0  1 0.21875 0  0 0.25 0  0.03125 0.25 0  0.0625 0.25 0  0.09375 0.25 0  0.125 0.25 0  0.15625 0.25 0  0.1875 0.25 0  0.21875 0.25 0  0.25 0.25 0  0.28125 0.25 0  0.3125 0.25 0  0.34375 0.25 0  0.375 0.25 0  0.40625 0.25 0  0.4375 0.25 0  0.46875 0.25 0  0.5 0.25 0  0.53125 0.25 0  0.5625 0.25 0  0.59375 0.25 0  0.625 0.25 0  0.65625 0.25 0  0.6875 0.25 0  0.71875 0.25 0  0.75 0.25 0  0.78125 0.25 0  0.8125 0.25 0  0.84375 0.25 0  0.875 0.25 0  0.90625 0.25 0  0.9375 0.25 0  0.96875 0.25 0  1 0.25 0  0 0.28125 0  0.03125 0.28125 0  0.0625 0.28125 0  0.09375 0.28125 0  0.125 0.28125 0  0.15625 0.28125 0  0.1875 0.28125 0  0.21875 0.28125 0  0.25 0.28125 0  0.28125 0.28125 0  0.3125 0.28125 0  0.34375 0.28125 0  0.375 0.28125 0  0.40625 0.28125 0  0.4375 0.28125 0  0.46875 0.28125 0  0.5 0.28125 0  0.53125 0.28125 0  0.5625 0.28125 0  0.59375 0.28125 0  0.625 0.28125 0  0.65625 0.28125 0  0.6875 0.28125 0  0.71875 0.28125 0  0.75 0.28125 0  0.78125 0.28125 0  0.8125 0.28125 0  0.84375 0.28125 0  0.875 0.28125 0  0.90625 0.28125 0  0.9375 0.28125 0  0.96875 0.28125 0  1 0.28125 0  0 0.3125 0  0.03125 0.3125 0  0.0625 0.3125 0  0.09375 0.3125 0  0.125 0.3125 0  0.15625 0.3125 0  0.1875 0.3125 0  0.21875 0.3125 0  0.25 0.3125 0  0.28125 0.3125 0  0.3125 0.3125 0  0.34375 0.3125 0  0.375 0.3125 0  0.40625 0.3125 0  0.4375 0.3125 0  0.46875 0.3125 0  0.5 0.3125 0  0.53125 0.3125 0  0.5625 0.3125 0  0.59375 0.3125 0  0.625 0.3125 0  0.65625 0.3125 0  0.6875 0.3125 0  0.71875 0.3125 0  0.75 0.3125 0  0.78125 0.3125 0  0.8125 0.3125 0  0.84375 0.3125 0  0.875 0.3125 0  0.90625 0.3125 0  0.9375 0.3125 0  0.96875 0.3125 0  1 0.3125 0  0 0.34375 0  0.03125 0.34375 0  0.0625 0.34375 0  0.09375 0.34375 0  0.125 0.34375 0  0.15625 0.34375 0  0.1875 0.34375 0  0.21875 0.34375 0  0.25 0.34375 0  0.28125 0.34375 0  0.3125 0.34375 0  0.34375 0.34375 0  0.375 0.34375 0  0.40625 0.34375 0  0.4375 0.34375 0  0.46875 0.34375 0  0.5 0.34375 0  0.53125 0.34375 0  0.5625 0.34375 0  0.59375 0.34375 0  0.625 0.34375 0  0.65625 0.34375 0  0.6875 0.34375 0  0.71875 0.34375 0  0.75 0.34375 0  0.78125 0.34375 0  0.8125 0.34375 0  0.84375 0.34375 0  0.875 0.34375 0  0.90625 0.34375 0  0.9375 0.34375 0  0.96875 0.34375 0  1 0.34375 0  0 0.375 0  0.03125 0.375 0  0.0625 0.375 0  0.09375 0.375 0  0.125 0.375 0  0.15625 0.375 0  0.1875 0.375 0  0.21875 0.375 0  0.25 0.375 0  0.28125 0.375 0  0.3125 0.375 0  0.34375 0.375 0  0.375 0.375 0  0.40625 0.375 0  0.4375 0.375 0  0.46875 0.375 0  0.5 0.375 0  0.53125 0.375 0  0.5625 0.375 0  0.59375 0.375 0  0.625 0.375 0  0.65625 0.375 0  0.6875 0.375 0  0.71875 0.375 0  0.75 0.375 0  0.78125 0.375 0  0.8125 0.375 0  0.84375 0.375 0  0.875 0.375 0  0.90625 0.375 0  0.9375 0.375 0  0.96875 0.375 0  1 0.375 0  0 0.40625 0  0.03125 0.40625 0  0.0625 0.40625 0  0.09375 0.40625 0  0.125 0.40625 0  0.15625 0.40625 0  0.1875 0.40625 0  0.21875 0.40625 0  0.25 0.40625 0  0.28125 0.40625 0  0.3125 0.40625 0  0.34375 0.40625 0  0.375 0.40625 0  0.40625 0.40625 0  0.4375 0.40625 0  0.46875 0.40625 0  0.5 0.40625 0  0.53125 0.40625 0  0.5625 0.40625 0  0.59375 0.40625 0  0.625 0.40625 0  0.65625 0.40625 0  0.6875 0.40625 0  0.71875 0.40625 0  0.75 0.40625 0  0.78125 0.40625 0  0.8125 0.40625 0  0.84375 0.40625 0  0.875 0.40625 0  0.90625 0.40625 0  0.9375 0.40625 0  0.96875 0.40625 0  1 0.40625 0  0 0.4375 0  0.03125 0.4375 0  0.0625 0.4375 0  0.09375 0.4375 0  0.125 0.4375 0  0.15625 0.4375 0  0.1875 0.4375 0  0.21875 0.4375 0  0.25 0.4375 0  0.28125 0.4375 0  0.3125 0.4375 0  0.34375 0.4375 0  0.375 0.4375 0  0.40625 0.4375 0  0.4375 0.4375 0  0.46875 0.4375 0  0.5 0.4375 0  0.53125 0.4375 0  0.5625 0.4375 0  0.59375 0.4375 0  0.625 0.4375 0  0.65625 0.4375 0  0.6875 0.4375 0  0.71875 0.4375 0  0.75 0.4375 0  0.78125 0.4375 0  0.8125 0.4375 0  0.84375 0.4375 0  0.875 0.4375 0  0.90625 0.4375 0  0.9375 0.4375 0  0.96875 0.4375 0  1 0.4375 0  0 0.46875 0  0.03125 0.46875 0  0.0625 0.46875 0  0.09375 0.46875 0  0.125 0.46875 0  0.15625 0.46875 0  0.1875 0.46875 0  0.21875 0.46875 0  0.25 0.46875 0  0.28125 0.46875 0  0.3125 0.46875 0  0.34375 0.46875 0  0.375 0.46875 0  0.40625 0.46875 0  0.4375 0.46875 0  0.46875 0.46875 0  0.5 0.46875 0  0.53125 0.46875 0  0.5625 0.46875 0  0.59375 0.46875 0  0.625 0.46875 0  0.65625 0.46875 0  0.6875 0.46875 0  0.71875 0.46875 0  0.75 0.46875 0  0.78125 0.46875 0  0.8125 0.46875 0  0.84375 0.46875 0  0.875 0.46875 0  0.90625 0.46875 0  0.9375 0.46875 0  0.96875 0.46875 0  1 0.46875 0  0 0.5 0  0.03125 0.5 0  0.0625 0.5 0  0.09375 0.5 0  0.125 0.5 0  0.15625 0.5 0  0.1875 0.5 0  0.21875 0.5 0  0.25 0.5 0  0.28125 0.5 0  0.3125 0.5 0  0.34375 0.5 0  0.375 0.5 0  0.40625 0.5 0  0.4375 0.5 0  0.46875 0.5 0  0.5 0.5 0  0.53125 0.5 0  0.5625 0.5 0  0.59375 0.5 0  0.625 0.5 0  0.65625 0.5 0  0.6875 0.5 0  0.71875 0.5 0  0.75 0.5 0  0.78125 0.5 0  0.8125 0.5 0  0.84375 0.5 0  0.875 0.5 0  0.90625 0.5 0  0.9375 0.5 0  0.96875 0.5 0  1 0.5 0  0 0.53125 0  0.03125 0.53125 0  0.0625 0.53125 0  0.09375 0.53125 0  0.125 0.53125 0  0.15625 0.53125 0  0.1875 0.53125 0  0.21875 0.53125 0  0.25 0.53125 0  0.28125 0.53125 0  0.3125 0.53125 0  0.34375 0.53125 0  0.375 0.53125 0  0.40625 0.53125 0  0.4375 0.53125 0  0.46875 0.53125 0  0.5 0.53125 0  0.53125 0.53125 0  0.5625 0.53125 0  0.59375 0.53125 0  0.625 0.53125 0  0.65625 0.53125 0  0.6875 0.53125 0  0.71875 0.53125 0  0.75 0.53125 0  0.78125 0.531
[...]
<PointData  Scalars="theta_dt"> 
<DataArray  type="Float64"  Name="theta_dt"  format="ascii">-1.7218585923916500e-04  -3.7979398017752862e-04  -2.5575228467933142e-04  -1.7218585923916503e-04  -2.8683422224595631e-04  -5.8655901887251750e-05  -7.2175038335654413e-05  -4.4928102262576785e-05  -2.5960924043634380e-04  -2.0480387319306878e-04  -3.7183126090451412e-04  -3.1566261210747986e-04  -4.6505630822931516e-04  -4.6455112313334066e-04  -3.9785917574078458e-04  -3.4404662339597268e-04  -2.4408214821109621e-04  -6.3774588474785885e-05  -7.5217570336676441e-05  -4.7415625021700932e-05  -9.0462978401803493e-05  -6.4234941565711299e-05  -7.0959749053318174e-05  -6.8967808977702676e-05  -4.9832886938040873e-04  -3.0228991763509293e-04  -3.9968558995923673e-04  -4.6126054070521667e-04  -2.8762535666150975e-04  -2.7911781839302094e-04  -4.0088107855276923e-04  -4.7762419895455385e-04  -7.2578287332946160e-04  -4.2430825808650139e-05  -1.7914195730099776e-04  -3.9398875418065582e-04  -2.3425877398128623e-04  -1.7914195730099776e-04  -2.9282511335874771e-04  -5.6748405135721513e-05  -6.8264314970380936e-05  -4.1852297198323634e-05  -2.4306873675651066e-04  -2.1098589678847233e-04  -3.5522120872600731e-04  -3.1329608004583185e-04  -4.2907026248494294e-04  -4.2422510374605555e-04  -4.0070198079121864e-04  -3.6366518647813599e-04  -2.6832229113516744e-04  -5.9057384200357611e-05  -7.5549945286448053e-05  -5.2124537720904815e-05  -8.6815428356048333e-05  -6.9551324048078761e-05  -6.4799987353162636e-05  -7.5321047610566090e-05  -4.9383559568052745e-04  -2.8878634267278009e-04  -4.2787002078832647e-04  -4.3829983717523740e-04  -2.6793435071924482e-04  -3.0355023629731562e-04  -4.3229224571039569e-04  -4.8759997711089026e-04  -5.7370249390762871e-05  -3.8632977667134640e-05  -1.9050490462913701e-04  -4.0298848121243813e-04  -2.1822127657829566e-04  -1.9050490462913707e-04  -5.4645164082244864e-05  -5.3923573633489998e-05  -6.3774588474785926e-05  -4.0085916116049334e-05  -2.3221062764898693e-04  -2.2443624998741486e-04  -3.4865901161137166e-04  -3.2275295080220166e-04  -3.9713388279384815e-04  -3.8625406521119597e-04  -3.9708897784796539e-04  -3.7850037464831084e-04  -2.9515563379460682e-04  -5.4487525256891620e-05  -7.4472385339071904e-05  -5.7337207811461409e-05  -8.2111431905650717e-05  -7.5096428744551161e-05  -5.8999946773012842e-05  -8.1222852768156250e-05  -4.8147095003659514e-04  -2.8345143344416120e-04  -4.5226844362691106e-04  -4.0967338454300968e-04  -2.5662615021213221e-04  -3.3369623905258006e-04  -4.5862999792496245e-04  -3.0320946564682597e-05  -5.9514458533373041e-05  -3.5386248826268078e-05  -2.0531240168467156e-04  -4.0586793645567691e-04  -2.0901122216070720e-04  -2.0531240168467153e-04  -5.7370249390762871e-05  -5.0401690905154900e-05  -5.9057384200357611e-05  -3.9785390801772141e-05  -2.2792087277705522e-04  -2.4408214821109624e-04  -3.5267532538156202e-04  -3.4332845490161925e-04  -3.7183126090451396e-04  -3.5379313961989749e-04  -3.8714667206209879e-04  -3.8719865324126035e-04  -3.2234504582794287e-04  -5.0431932392090699e-05  -7.2050534706103196e-05  -6.2619048269610007e-05  -7.6710984079022645e-05  -8.0391966423751324e-05  -5.4041570785326772e-05  -8.6171420297635032e-05  -4.6205760087584283e-04  -2.8671660043370949e-04  -4.7071807178520269e-04  -3.7766894695099223e-04  -2.5470221627431263e-04  -3.6706724780769434e-04  -1.0268784599801382e-04  -3.2830449107008021e-05  -6.0873923430686021e-05  -3.2963684821479976e-05  -2.2230501083358100e-04  -4.0220835372516253e-04  -2.0744425876524772e-04  -2.2230501083358100e-04  -5.9514458533373061e-05  -4.6464218196485823e-05  -5.4487525256891654e-05  -4.0986316452514336e-05  -2.3054636562067207e-04  -2.6832229113516744e-04  -3.6692297706552223e-04  -3.7338151398930776e-04  -3.5522120872600747e-04  -3.2957224722206035e-04  -3.7153656407823529e-04  -3.8890962492442818e-04  -3.4760249662479177e-04  -4.7218758770418249e-05  -6.8463991265743003e-05  -6.7525584141916819e-05  -7.1036915603673272e-05  -8.4976155767090071e-05  -5.0341852151981403e-05  -8.9740217121968562e-05  -4.3702152888314247e-04  -2.9829960032339242e-04  -4.8153559589182520e-04  -3.4488485814285929e-04  -2.6239042590756040e-04  -1.4796342044638222e-04  -1.0923419728943038e-04  -3.5447915848614911e-05  -6.1308883103656462e-05  -3.1572448660778968e-05  -2.4002867859252295e-04  -3.9213786910975528e-04  -2.1370598264001467e-04  -2.4002867859252298e-04  -6.0873923430685994e-05  -4.2430825808650112e-05  -5.0431932392090713e-05  -4.3599194569020137e-05  -2.3986015674232899e-04  -2.9515563379460687e-04  -3.9019684615066401e-04  -4.1046255957433473e-04  -3.4865901161137166e-04  -3.1566261210747986e-04  -3.5140527276617499e-04  -3.8336265287330657e-04  -3.6878045786770922e-04  -4.5109452400983223e-05  -6.3992437692706901e-05  -7.1639634580992052e-05  -6.5540080813524898e-05  -8.8442633471462424e-05  -4.8217168413200387e-05  -9.1614553681275518e-05  -4.0827873496184636e-04  -3.1722069897357911e-04  -4.8366342810950299e-04  -3.1401531241585464e-04  -1.4780268955544269e-04  -1.3651401459496937e-04  -1.1879595000368229e-04  -3.7947578977257042e-05  -6.0756080308262975e-05  -3.1335749067115882e-05  -2.5695466206237681e-04  -3.7632651149492466e-04  -2.2732974134137028e-04  -2.5695466206237676e-04  -6.1308883103656448e-05  -3.8632977667134633e-05  -4.7218758770418290e-05  -4.7415625021700939e-05  -2.5507445030172586e-04  -3.2234504582794303e-04  -4.2052592697775762e-04  -4.5151051896426210e-04  -3.5267532538156169e-04  -3.1329608004583185e-04  -3.2829343806139999e-04  -3.7089565481368298e-04  -3.8405353242501307e-04  -4.4276120631604438e-05  -5.8993230871443893e-05  -7.4606596243060374e-05  -6.0661828720910540e-05  -9.0475124631197022e-05  -4.7855682856802416e-05  -4.4416504518882642e-04  -3.7807965034553965e-04  -3.4187751594713818e-04  -4.7676499375372061e-04  -1.9326510646179118e-04  -1.3497246737385757e-04  -1.2635306012096040e-04  -1.3059374360716871e-04  -4.0111462943424768e-05  -5.9234870799882501e-05  -3.2281621511285604e-05  -2.7160698213797498e-04  -3.5593568226348338e-04  -2.4722891966866295e-04  -2.7160698213797498e-04  -6.0756080308262948e-05  -3.5386248826268078e-05  -4.5109452400983264e-05  -5.2124537720904842e-05  -2.7490078589732515e-04  -3.4760249662479193e-04  -4.5533060830962771e-04  -4.9310317088039528e-04  -3.6692297706552207e-04  -3.2275295080220161e-04  -3.0401061246696707e-04  -3.5243314952824409e-04  -3.9207497030026159e-04  -4.4786151312186733e-05  -5.3872239761155254e-05  -7.6164848221811038e-05  -5.6796876920669620e-05  -9.0874920381980710e-05  -4.9300211009431681e-05  -4.6631499495161996e-04  -3.4882385625868278e-04  -3.7017288903527757e-04  -4.0908967553402959e-05  -1.8842613864003297e-04  -1.2289151149797489e-04  -1.1830271779733506e-04  -1.4365365993601679e-04  -4.1747751273109280e-05  -5.6846466620476088e-05  -3.4339575231276136e-05  -2.8268679081411421e-04  -3.3252588368747104e-04  -2.7178157291124716e-04  -2.8268679081411426e-04  -5.9234870799882495e-05  -3.2963684821479969e-05  -4.4276120631604411e-05  -5.7337207811461436e-05  -2.9765285333773015e-04  -3.6878045786770933e-04  -4.9163266192459617e-04  -5.3174043004562395e-04  -3.9019684615066385e-04  -3.4332845490161914e-04  -2.8048627871765175e-04  -3.2941486385873919e-04  -6.9380157588783524e-05  -4.6595457034016884e-05  -4.9050307079975387e-05  -8.3453618305941185e-05  -5.4259707004042276e-05  -8.9578782124655123e-05  -5.2443099993732139e-05  -4.8374348595748987e-04  -3.2286034376944310e-04  -4.4196539156024481e-05  -3.8872594196438326e-05  -1.8082862435562347e-04  -1.1256366625353265e-04  -1.1301802411479536e-04  -1.5688687693371484e-04  -4.2707152096794241e-05  -5.3766304692302699e-05  -3.7345470224067789e-05  -2.8918318718712381e-04  -3.0792999749827633e-04  -2.9896085810442223e-04  -2.8918318718712386e-04  -5.6846466620476068e-05  -3.1572448660778941e-05  -4.4786151312186753e-05  -6.2619048269610034e-05  -3.2138376367698602e-04  -3.8405353242501318e-04  -5.2630087889671208e-04  -5.6413714275092418e-04  -4.2052592697775746e-04  -3.7338151398930776e-04  -2.5960924043634369e-04  -3.0368036938087481e-04  -7.2840058411174647e-05  -4.9550999844786221e-05  -4.4928102262576758e-05  -8.7615344837604700e-05  -5.3257337539617833e-05  -8.6665669711222837e-05  -5.7033676627716097e-05  -4.9479344431499093e-04  -2.3459756123487224e-05  -4.3798032950147917e-05  -3.6333728374292798e-05  -1.7103062850158513e-04  -1.0485748955614953e-04  -1.1093017988272423e-04  -1.6917979914893533e-04  -4.2895868476086045e-05  -5.0230108616036411e-05  -4.1054301625433225e-05  -2.9046104350295406e-04  -2.8410238183120039e-04  -3.2650080321181398e-04  -2.9046104350295400e-04  -5.3766304692302726e-05  -3.1335749067115882e-05  -4.6595457034016898e-05  -6.7525584141916819e-05  -3.4404662339597268e-04  -3.9207497030026170e-04  -5.5631212240468762e-04  -5.8750093130847860e-04  -4.5533060830962776e-04  -4.1046255957433457e-04  -2.4306873675651055e-04  -2.7731896402985175e-04  -7.5562450606643218e-05  -5.3402482229078800e-05  -4.1852297198323621e-05  -9.0889962351538414e-05  -5.3870825707141412e-05  -8.2351611661895461e-05  -6.2697771618167554e-05  -2.4731377272259861e-05  -2.1927541095161474e-05  -4.2701418688100700e-05  -3.3495270748988364e-05  -1.5978198790986433e-04  -1.0043196698545124e-04  -1.1220801981846434e-04  -1.7948721426893697e-04  -4.2284049769897768e-05  -4.6514746608451789e-05  -4.5159902164615724e-05  -2.8631823194213572e-04  -2.6295619126381290e-04  -3.5208387972869587e-04  -2.8631823194213567e-04  -5.0230108616036384e-05  -3.2281621511285618e-05  -4.9550999844786227e-05  -7.1639634580992080e-05  -3.6366518647813615e-04  -5.4634454928012815e-04  -5.7900605991668226e-04  -5.9977162230404112e-04  -4.9163266192459607e-04  -4.5151051896426205e-04  -2.3221062764898688e-04  -2.5249702639193152e-04  -7.7288493347955664e-05  -5.7822320001441011e-05  -4.0085916116049334e-05  -9.2966125293787488e-05  -5.6047141160376601e-05  -7.6973023055474477e-05  -5.1371774291166075e-05  -2.3391335379878329e-05  -2.0214521292058239e-05  -4.0979658422837453e-05  -3.0587666245751897e-05  -1.4796342044638241e-04  -9.9679025519565687e-05  -1.1674108654432805e-04  -1.8692069277119437e-04  -4.0908967553402953e-05  -4.2915436654754236e-05  -4.9319982633190941e-05  -2.7700712973824658e-04  -2.4620244304620882e-04  -3.7353487283591424e-04  -2.7700712973824663e-04  -4.6514746608451768e-05  -3.4339575231276116e-05  -5.3402482229078834e-05  -7.4606596243060401e-05  -3.7850037464831100e-04  -5.7359006184536402e-04  -5.9231213925898434e-04  -5.4634454928012782e-04  -5.2630087889671208e-04  -4.9310317088039517e-04  -2.2792087277705514e-04  -2.3127708872926623e-04  -7.7840739299858027e-05  -6.2432308705312169e-05  -3.9785390801772148e-05  -9.3630391915293468e-05  -5.9602202869499726e-05  -5.1579134003878606e-05  -4.7854831541148079e-05  -2.1852893248466662e-05  -1.8459771089260332e-05  -3.8759221670870420e-05  -2.7849861614548081e-05  -1.3651401459496940e-04  -1.0268784599801389e-04  -1.2414595605350788e-04  -1.9082476498528161e-04  -3.8872594196438326e-05  -3.9721172685776785e-05  -5.3184465896644531e-05  -2.6321822299177680e-04  -2.3520434833108089e-04  -3.8900485190032137e-04  -2.6321822299177675e-04  -4.2915436654754223e-05  -3.7345470224067775e-05  -5.7822320001441032e-05  -7.6164848221811065e-05  -3.8719865324126057e-04  -5.9502795113083678e-04  -5.9492947609470176e-04  -5.7359006184536337e-04  -5.5631212240468762e-04  -5.3174043004562395e-04  -2.3054636562067191e-04  -2.1544371930267176e-04  -7.7138873989284582e-05  -6.6834816902779882e-05  -4.0986316452514302e-05  -9.2786156304329061e-05  -2.1456937784826101e-05  -5.0626284241474073e-05  -4.5835112797176910e-05  -2.0236503963868657e-05  -1.6807495744907819e-05  -3.6210037597759101e-05  -2.5509349586270799e-05  -1.2635306012096043e-04  -1.0923419728943044e-04  -1.3379552850046144e-04  -3.9392776573094728e-05  -3.6333728374292784e-05  -3.7190414528354908e-05  -5.6424772190244581e-05  -2.4602678609557589e-04  -2.3085928880745723e-04  -3.9712970426917160e-04  -2.4602678609557578e-04  -3.9721172685776785e-05  -4.1054301625433225e-05  -6.2432308705312196e-05  -3.5714931311659859e-04  -3.8890962492442807e-04  -6.0861993587566583e-04  -5.8644406723672626e-04  -5.9502795113083645e-04  -5.7900605991668215e-04  -5.6413714275092418e-04  -2.3986015674232869e-04  -2.0635089201370059e-04  -7.5207472424488269e-05  -7.0645937205457323e-05  -4.3599194569020110e-05  -2.5773926171648904e-05  -2.3138203116388137e-05  -5.1209464471329159e-05  -4.5491485583109362e-05  -1.8670603782613942e-05  -1.5394987973751555e-05  -3.3531695828436823e-05  -2.3762964079384827e-05  -1.1830271779733514e-04  -1.1879595000368236e-04  -1.4486906864233707e-04  -4.1357244582368272e-05  -3.3495270748988371e-05  -3.5529083729127430e-05  -5.8761609010512405e-05  -2.2680672148155676e-04  -2.3351863019756955e-04  -2.6674053694188848e-04  -2.2680672148155670e-04  -3.7190414528354894e-05  -4.5159902164615703e-05  -6.6834816902779868e-05  -3.7495989823363646e-04  -3.8336265287330679e-04  -6.1296868018772264e-04  -5.6737283796198963e-04  -6.0861993587566583e-04  -5.9231213925898434e-04  -5.8750093130847849e-04  -2.5507445030172575e-04  -2.0480387319306867e-04  -7.2175038335654427e-05  -7.3527834650882238e-05  -2.3391335379878329e-05  -2.5887817213042237e-05  -2.4547916721979859e-05  -5.3278264186535340e-05  -4.6864650225360226e-05  -1.7280921151125413e-05  -1.4341037782465079e-05  -3.0937014026220566e-05  -2.2760045410197181e-05  -1.1301802411479544e-04  -1.3059374360716873e-04  -1.5641901630899708e-04  -4.2902968766738884e-05  -3.0587666245751890e-05  -3.4872735388978751e-05  -5.9988918633603813e-05  -2.0711844221114675e-04  -2.4295249717187745e-04  -2.8004255058965621e-04  -2.0711844221114667e-04  -3.5529083729127410e-05  -4.9319982633190934e-05  -7.0645937205457337e-05  -3.8897399875511998e-04  -3.7089565481368319e-04  -6.0744173559596621e-04  -5.3913005893846638e-04  -6.1296868018772264e-04  -5.9492947609470154e-04  -5.9977162230404101e-04  -2.7490078589732499e-04  -2.1098589678847224e-04  -6.8264314970380949e-05  -5.4303363785090972e-06  -2.1852893248466662e-05  -2.5518582333413893e-05  -2.5564570816096143e-05  -5.6657696446891290e-05  -4.9852272183371731e-05  -1.6179900480941751e-05  -1.3735772611019692e-05  -2.8634323038669806e-05  -2.2589412667763120e-05  -1.1093017988272427e-04  -1.4365365993601682e-04  -1.6744913862580326e-04  -4.3882984068334670e-05  -2.7849861614548074e-05  -3.5274445491636468e-05  -2.6674053694188848e-04  -1.8857992980102935e-04  -2.5836293741824247e-04  -2.9050912174231539e-04  -1.8857992980102941e-04  -3.4872735388978717e-05  -5.3184465896644510e-05  -7.3527834650882252e-05  -3.9785917574078474e-04  -3.5243314952824409e-04  -5.9223262172148066e-04  -5.0391813370874840e-04  -6.0744173559596588e-04  -5.8644406723672637e-04  -3.5714931311659815e-04  -2.9765285333773010e-04  -2.2443624998741475e-04  -8.6143904739288010e-06  -5.9696307550359721e-06  -2.0236503963868657e-05  -2.4688715067913276e-05  -2.6098518818901570e-05  -6.1061565601567172e-05  -5.4216062193179457e-05  -1.5457129107233864e-05  -1.3632795112169052e-05  -2.6809942193078237e-05  -2.3271276149840802e-05  -1.1220801981846430e-04  -1.5688687693371490e-04  -1.7699758719581939e-04  -4.4196539156024475e-05  -2.5509349586270796e-05  -3.6699489934895790e-05  -2.8004255058965632e-04  -1.7273160710198844e-04  -2.7844487936366162e-04  -2.9714510504940425e-04  -1.7273160710198842e-04  -3.5274445491636468e-05  -5.6424772190244561e-05  -7.5217570336676468e-05  -4.0070198079121864e-04  -3.2941486385873936e-04  -5.6835326063231690e-04  -4.6455112313334071e-04  -5.9223262172148077e-04  -5.6737283796198942e-04  -3.7495989823363641e-04  -3.2138376367698602e-04  -6.2402549885615235e-06  -8.6524561491197135e-06  -6.5666186046944079e-06  -1.8670603782613942e-05  -2.3459756123487224e-05  -7.9330788892575480e-05  -6.6115304731663554e-05  -5.9600335914035105e-05  -1.5171581044403305e-05  -1.4044302276270791e-05  -2.5612316857202736e-05  -2.4754820255726213e-05  -1.1674108654432821e-04  -1.6917979914893541e-04  -1.8421794429721272e-04  -4.3798032950147903e-05  -2.3762964079384820e-05  -3.9027333045368916e-05  -2.9050912174231533e-04  -1.6090629677003129e-04  -3.0149027246080507e-04  -2.9926828243691386e-04  -1.6090629677003123e-04  -3.6699489934895776e-05  -5.8761609010512392e-05  -7.5549945286448067e-05  -3.9708897784796572e-04  -3.0368036938087487e-04  -5.3755767773636435e-04  -4.2422510374605539e-04  -5.6835326063231690e-04  -5.3913005893846638e-04  -3.8897399875511976e-04  -8.5444178679498403e-06  -5.7757829192790645e-06  -8.5290471888965103e-06  -7.1715282810350302e-06  -1.7280921151125413e-05  -2.1927541095161474e-05  -8.3286915129087975e-05  -7.1386466593698381e-05  -6.5560616848701678e-05  -1.5346347299784399e-05  -1.4939626698063495e-05  -2.5139166415588457e-05  -2.6921719227335273e-05  -1.2414595605350794e-04  -1.7948721426893705e-04  -1.8845143812877514e-04  -4.2701418688100693e-05  -2.2760045410197174e-05  -4.2060835622531877e-05  -2.9714510504940425e-04  -1.5411522775686415e-04  -3.2552712795772595e-04  -2.9656987504912946e-04  -1.5411522775686415e-04  -3.9027333045368916e-05  -5.9988918633603799e-05  -7.4472385339071945e-05  -3.8714667206209889e-04  -2.7731896402985175e-04  -5.0220264707809606e-04  -3.8625406521119608e-04  -5.3755767773636456e-04  -5.0391813370874840e-04  -5.1454495859157473e-06  -8.7228787108306564e-06  -5.4077900139815488e-06  -8.2516815823162766e-06  -7.7334557095494304e-06  -1.6179900480941751e-05  -2.0214521292058239e-05  -8.6399757879050652e-05  -7.6420390709022254e-05  -7.1599988693792313e-05  -1.5966320956041335e-05  -1.6247358339571532e-05  -2.5428752449172981e-05  -2.9595353192847297e-05  -1.3379552850046158e-04  -1.8692069277119442e-04  -1.8928417623773126e-04  -4.0979658422837446e-05  -2.2589412667763110e-05  -4.5541985978504554e-05  -2.9926828243691386e-04  -1.5295982127638239e-04  -3.4848216324396810e-04  -2.8914436452351713e-04  -1.5295982127638239e-04  -4.2060835622531863e-05  -6.9380157588783524e-05  -7.2050534706103196e-05  -3.7153656407823519e-04  -2.5249702639193168e-04  -4.6505630822931500e-04  -3.5379313961989754e-04  -5.0220264707809606e-04  -8.0908182192069782e-06  -4.7931889940544810e-06  -7.9458531555501513e-06  -5.1662189473527316e-06  -7.8409280109275650e-06  -8.2046227088688915e-06  -1.5457129107233864e-05  -1.8459771089260332e-05  -8.8373352882137928e-05  -8.0778108977232001e-05  -7.7210229070973982e-05  -1.6979062285772549e-05  -1.7860906446945622e-05  -2.6456042938694703e-05  -3.2555011333775853e-05  -1.4486906864233709e-04  -1.9082476498528166e-04  -1.8658443838600241e-04  -3.8759221670870420e-05  -2.3271276149840792e-05  -4.9172902913479372e-05  -2.9656987504912951e-04  -1.5757692743524829e-04  -3.6835365401788529e-04  -2.7748579923327044e-04  -1.5757692743524824e-04  -4.5541985978504554e-05  -7.2840058411174661e-05  -6.8463991265743030e-05  -3.5140527276617510e-04  -2.3127708872926634e-04  -4.2907026248494305e-04  -3.2957224722206035e-04  -5.4077900139815488e-06  -8.4208712877864013e-06  -4.5908918937843852e-06  -8.3421028157257843e-06  -5.0707805381668580e-06  -7.3288174983065427e-06  -8.5444178679498403e-06  -1.5171581044403305e-05  -1.6807495744907819e-05  -8.9004802976079783e-05  -8.4073333516906739e-05  -8.1914324279435270e-05  -1.8298804763226107e-05  -1.9647071214962035e-05  -2.8134145751416987e-05  -3.5553943136378406e-05  -1.5641901630899716e-04  -1.7382628043798940e-04  -1.8051669074840699e-04  -3.6210037597759088e-05  -2.4754820255726206e-05  -5.2640404158575202e-05  -2.8914436452351708e-04  -1.6762245826109840e-04  -3.8338010134832107e-04  -2.6245054295053036e-04  -1.6762245826109840e-04  -4.9172902913479372e-05  -7.5562450606643245e-05  -6.3992437692706928e-05  -3.2829343806140010e-04  -2.1544371930267179e-04  -3.9713388279384804e-04  -8.9148123251903100e-06  -5.1662189473527316e-06  -8.6143904739288010e-06  -4.5564738396928170e-06  -8.6538