<?xml version="1.0"?>
<VTKFile type="UnstructuredGrid"  version="0.1"  >
<UnstructuredGrid>
<Piece  NumberOfPoints="1089" NumberOfCells="2048">
<Points>
<DataArray  type="Float64"  NumberOfComponents="3"  format="ascii">0 0 0  0.03125 0 0  0.0625 0 0  0.09375 0 0  0.125 0 0  0.15625 0 0  0.1875 0 0  0.21875 0 0  0.25 0 0  0.28125 0 0  0.3125 0 0  0.34375 0 0  0.375 0 0  0.40625 0 0  0.4375 0 0  0.46875 0 0  0.5 0 0  0.53125 0 0  0.5625 0 0  0.59375 0 0  0.625 0 0  0.65625 0 0  0.6875 0 0  0.71875 0 0  0.75 0 0  0.78125 0 0  0.8125 0 0  0.84375 0 0  0.875 0 0  0.90625 0 0  0.9375 0 0  0.96875 0 0  1 0 0  0 0.03125 0  0.03125 0.03125 0  0.0625 0.03125 0  0.09375 0.03125 0  0.125 0.03125 0  0.15625 0.03125 0  0.1875 0.03125 0  0.21875 0.03125 0  0.25 0.03125 0  0.28125 0.03125 0  0.3125 0.03125 0  0.34375 0.03125 0  0.375 0.03125 0  0.40625 0.03125 0  0.4375 0.03125 0  0.46875 0.03125 0  0.5 0.03125 0  0.53125 0.03125 0  0.5625 0.03125 0  0.59375 0.03125 0  0.625 0.03125 0  0.65625 0.03125 0  0.6875 0.03125 0  0.71875 0.03125 0  0.75 0.03125 0  0.78125 0.03125 0  0.8125 0.03125 0  0.84375 0.03125 0  0.875 0.03125 0  0.90625 0.03125 0  0.9375 0.03125 0  0.96875 0.03125 0  1 0.03125 0  0 0.0625 0  0.03125 0.0625 0  0.0625 0.0625 0  0.09375 0.0625 0  0.125 0.0625 0  0.15625 0.0625 0  0.1875 0.0625 0  0.21875 0.0625 0  0.25 0.0625 0  0.28125 0.0625 0  0.3125 0.0625 0  0.34375 0.0625 0  0.375 0.0625 0  0.40625 0.0625 0  0.4375 0.0625 0  0.46875 0.0625 0  0.5 0.0625 0  0.53125 0.0625 0  0.5625 0.0625 0  0.59375 0.0625 0  0.625 0.0625 0  0.65625 0.0625 0  0.6875 0.0625 0  0.71875 0.0625 0  0.75 0.0625 0  0.78125 0.0625 0  0.8125 0.0625 0  0.84375 0.0625 0  0.875 0.0625 0  0.90625 0.0625 0  0.9375 0.0625 0  0.96875 0.0625 0  1 0.0625 0  0 0.09375 0  0.03125 0.09375 0  0.0625 0.09375 0  0.09375 0.09375 0  0.125 0.09375 0  0.15625 0.09375 0  0.1875 0.09375 0  0.21875 0.09375 0  0.25 0.09375 0  0.28125 0.09375 0  0.3125 0.09375 0  0.34375 0.09375 0  0.375 0.09375 0  0.40625 0.09375 0  0.4375 0.09375 0  0.46875 0.09375 0  0.5 0.09375 0  0.53125 0.09375 0  0.5625 0.09375 0  0.59375 0.09375 0  0.625 0.09375 0  0.65625 0.09375 0  0.6875 0.09375 0  0.71875 0.09375 0  0.75 0.09375 0  0.78125 0.09375 0  0.8125 0.09375 0  0.84375 0.09375 0  0.875 0.09375 0  0.90625 0.09375 0  0.9375 0.09375 0  0.96875 0.09375 0  1 0.09375 0  0 0.125 0  0.03125 0.125 0  0.0625 0.125 0  0.09375 0.125 0  0.125 0.125 0  0.15625 0.125 0  0.1875 0.125 0  0.21875 0.125 0  0.25 0.125 0  0.28125 0.125 0  0.3125 0.125 0  0.34375 0.125 0  0.375 0.125 0  0.40625 0.125 0  0.4375 0.125 0  0.46875 0.125 0  0.5 0.125 0  0.53125 0.125 0  0.5625 0.125 0  0.59375 0.125 0  0.625 0.125 0  0.65625 0.125 0  0.6875 0.125 0  0.71875 0.125 0  0.75 0.125 0  0.78125 0.125 0  0.8125 0.125 0  0.84375 0.125 0  0.875 0.125 0  0.90625 0.125 0  0.9375 0.125 0  0.96875 0.125 0  1 0.125 0  0 0.15625 0  0.03125 0.15625 0  0.0625 0.15625 0  0.09375 0.15625 0  0.125 0.15625 0  0.15625 0.15625 0  0.1875 0.15625 0  0.21875 0.15625 0  0.25 0.15625 0  0.28125 0.15625 0  0.3125 0.15625 0  0.34375 0.15625 0  0.375 0.15625 0  0.40625 0.15625 0  0.4375 0.15625 0  0.46875 0.15625 0  0.5 0.15625 0  0.53125 0.15625 0  0.5625 0.15625 0  0.59375 0.15625 0  0.625 0.15625 0  0.65625 0.15625 0  0.6875 0.15625 0  0.71875 0.15625 0  0.75 0.15625 0  0.78125 0.15625 0  0.8125 0.15625 0  0.84375 0.15625 0  0.875 0.15625 0  0.90625 0.15625 0  0.9375 0.15625 0  0.96875 0.15625 0  1 0.15625 0  0 0.1875 0  0.03125 0.1875 0  0.0625 0.1875 0  0.09375 0.1875 0  0.125 0.1875 0  0.15625 0.1875 0  0.1875 0.1875 0  0.21875 0.1875 0  0.25 0.1875 0  0.28125 0.1875 0  0.3125 0.1875 0  0.34375 0.1875 0  0.375 0.1875 0  0.40625 0.1875 0  0.4375 0.1875 0  0.46875 0.1875 0  0.5 0.1875 0  0.53125 0.1875 0  0.5625 0.1875 0  0.59375 0.1875 0  0.625 0.1875 0  0.65625 0.1875 0  0.6875 0.1875 0  0.71875 0.1875 0  0.75 0.1875 0  0.78125 0.1875 0  0.8125 0.1875 0  0.84375 0.1875 0  0.875 0.1875 0  0.90625 0.1875 0  0.9375 0.1875 0  0.96875 0.1875 0  1 0.1875 0  0 0.21875 0  0.03125 0.21875 0  0.0625 0.21875 0  0.09375 0.21875 0  0.125 0.21875 0  0.15625 0.21875 0  0.1875 0.21875 0  0.21875 0.21875 0  0.25 0.21875 0  0.28125 0.21875 0  0.3125 0.21875 0  0.34375 0.21875 0  0.375 0.21875 0  0.40625 0.21875 0  0.4375 0.21875 0  0.46875 0.21875 0  0.5 0.21875 0  0.53125 0.21875 0  0.5625 0.21875 0  0.59375 0.21875 0  0.625 0.21875 0  0.65625 0.21875 0  0.6875 0.21875 0  0.71875 0.21875 0  0.75 0.21875 0  0.78125 0.21875 0  0.8125 0.21875 0  0.84375 0.21875 0  0.875 0.21875 0  0.90625 0.21875 0  0.9375 0.21875 0  0.96875 0.21875 0  1 0.21875 0  0 0.25 0  0.03125 0.25 0  0.0625 0.25 0  0.09375 0.25 0  0.125 0.25 0  0.15625 0.25 0  0.1875 0.25 0  0.21875 0.25 0  0.25 0.25 0  0.28125 0.25 0  0.3125 0.25 0  0.34375 0.25 0  0.375 0.25 0  0.40625 0.25 0  0.4375 0.25 0  0.46875 0.25 0  0.5 0.25 0  0.53125 0.25 0  0.5625 0.25 0  0.59375 0.25 0  0.625 0.25 0  0.65625 0.25 0  0.6875 0.25 0  0.71875 0.25 0  0.75 0.25 0  0.78125 0.25 0  0.8125 0.25 0  0.84375 0.25 0  0.875 0.25 0  0.90625 0.25 0  0.9375 0.25 0  0.96875 0.25 0  1 0.25 0  0 0.28125 0  0.03125 0.28125 0  0.0625 0.28125 0  0.09375 0.28125 0  0.125 0.28125 0  0.15625 0.28125 0  0.1875 0.28125 0  0.21875 0.28125 0  0.25 0.28125 0  0.28125 0.28125 0  0.3125 0.28125 0  0.34375 0.28125 0  0.375 0.28125 0  0.40625 0.28125 0  0.4375 0.28125 0  0.46875 0.28125 0  0.5 0.28125 0  0.53125 0.28125 0  0.5625 0.28125 0  0.59375 0.28125 0  0.625 0.28125 0  0.65625 0.28125 0  0.6875 0.28125 0  0.71875 0.28125 0  0.75 0.28125 0  0.78125 0.28125 0  0.8125 0.28125 0  0.84375 0.28125 0  0.875 0.28125 0  0.90625 0.28125 0  0.9375 0.28125 0  0.96875 0.28125 0  1 0.28125 0  0 0.3125 0  0.03125 0.3125 0  0.0625 0.3125 0  0.09375 0.3125 0  0.125 0.3125 0  0.15625 0.3125 0  0.1875 0.3125 0  0.21875 0.3125 0  0.25 0.3125 0  0.28125 0.3125 0  0.3125 0.3125 0  0.34375 0.3125 0  0.375 0.3125 0  0.40625 0.3125 0  0.4375 0.3125 0  0.46875 0.3125 0  0.5 0.3125 0  0.53125 0.3125 0  0.5625 0.3125 0  0.59375 0.3125 0  0.625 0.3125 0  0.65625 0.3125 0  0.6875 0.3125 0  0.71875 0.3125 0  0.75 0.3125 0  0.78125 0.3125 0  0.8125 0.3125 0  0.84375 0.3125 0  0.875 0.3125 0  0.90625 0.3125 0  0.9375 0.3125 0  0.96875 0.3125 0  1 0.3125 0  0 0.34375 0  0.03125 0.34375 0  0.0625 0.34375 0  0.09375 0.34375 0  0.125 0.34375 0  0.15625 0.34375 0  0.1875 0.34375 0  0.21875 0.34375 0  0.25 0.34375 0  0.28125 0.34375 0  0.3125 0.34375 0  0.34375 0.34375 0  0.375 0.34375 0  0.40625 0.34375 0  0.4375 0.34375 0  0.46875 0.34375 0  0.5 0.34375 0  0.53125 0.34375 0  0.5625 0.34375 0  0.59375 0.34375 0  0.625 0.34375 0  0.65625 0.34375 0  0.6875 0.34375 0  0.71875 0.34375 0  0.75 0.34375 0  0.78125 0.34375 0  0.8125 0.34375 0  0.84375 0.34375 0  0.875 0.34375 0  0.90625 0.34375 0  0.9375 0.34375 0  0.96875 0.34375 0  1 0.34375 0  0 0.375 0  0.03125 0.375 0  0.0625 0.375 0  0.09375 0.375 0  0.125 0.375 0  0.15625 0.375 0  0.1875 0.375 0  0.21875 0.375 0  0.25 0.375 0  0.28125 0.375 0  0.3125 0.375 0  0.34375 0.375 0  0.375 0.375 0  0.40625 0.375 0  0.4375 0.375 0  0.46875 0.375 0  0.5 0.375 0  0.53125 0.375 0  0.5625 0.375 0  0.59375 0.375 0  0.625 0.375 0  0.65625 0.375 0  0.6875 0.375 0  0.71875 0.375 0  0.75 0.375 0  0.78125 0.375 0  0.8125 0.375 0  0.84375 0.375 0  0.875 0.375 0  0.90625 0.375 0  0.9375 0.375 0  0.96875 0.375 0  1 0.375 0  0 0.40625 0  0.03125 0.40625 0  0.0625 0.40625 0  0.09375 0.40625 0  0.125 0.40625 0  0.15625 0.40625 0  0.1875 0.40625 0  0.21875 0.40625 0  0.25 0.40625 0  0.28125 0.40625 0  0.3125 0.40625 0  0.34375 0.40625 0  0.375 0.40625 0  0.40625 0.40625 0  0.4375 0.40625 0  0.46875 0.40625 0  0.5 0.40625 0  0.53125 0.40625 0  0.5625 0.40625 0  0.59375 0.40625 0  0.625 0.40625 0  0.65625 0.40625 0  0.6875 0.40625 0  0.71875 0.40625 0  0.75 0.40625 0  0.78125 0.40625 0  0.8125 0.40625 0  0.84375 0.40625 0  0.875 0.40625 0  0.90625 0.40625 0  0.9375 0.40625 0  0.96875 0.40625 0  1 0.40625 0  0 0.4375 0  0.03125 0.4375 0  0.0625 0.4375 0  0.09375 0.4375 0  0.125 0.4375 0  0.15625 0.4375 0  0.1875 0.4375 0  0.21875 0.4375 0  0.25 0.4375 0  0.28125 0.4375 0  0.3125 0.4375 0  0.34375 0.4375 0  0.375 0.4375 0  0.40625 0.4375 0  0.4375 0.4375 0  0.46875 0.4375 0  0.5 0.4375 0  0.53125 0.4375 0  0.5625 0.4375 0  0.59375 0.4375 0  0.625 0.4375 0  0.65625 0.4375 0  0.6875 0.4375 0  0.71875 0.4375 0  0.75 0.4375 0  0.78125 0.4375 0  0.8125 0.4375 0  0.84375 0.4375 0  0.875 0.4375 0  0.90625 0.4375 0  0.9375 0.4375 0  0.96875 0.4375 0  1 0.4375 0  0 0.46875 0  0.03125 0.46875 0  0.0625 0.46875 0  0.09375 0.46875 0  0.125 0.46875 0  0.15625 0.46875 0  0.1875 0.46875 0  0.21875 0.46875 0  0.25 0.46875 0  0.28125 0.46875 0  0.3125 0.46875 0  0.34375 0.46875 0  0.375 0.46875 0  0.40625 0.46875 0  0.4375 0.46875 0  0.46875 0.46875 0  0.5 0.46875 0  0.53125 0.46875 0  0.5625 0.46875 0  0.59375 0.46875 0  0.625 0.46875 0  0.65625 0.46875 0  0.6875 0.46875 0  0.71875 0.46875 0  0.75 0.46875 0  0.78125 0.46875 0  0.8125 0.46875 0  0.84375 0.46875 0  0.875 0.46875 0  0.90625 0.46875 0  0.9375 0.46875 0  0.96875 0.46875 0  1 0.46875 0  0 0.5 0  0.03125 0.5 0  0.0625 0.5 0  0.09375 0.5 0  0.125 0.5 0  0.15625 0.5 0  0.1875 0.5 0  0.21875 0.5 0  0.25 0.5 0  0.28125 0.5 0  0.3125 0.5 0  0.34375 0.5 0  0.375 0.5 0  0.40625 0.5 0  0.4375 0.5 0  0.46875 0.5 0  0.5 0.5 0  0.53125 0.5 0  0.5625 0.5 0  0.59375 0.5 0  0.625 0.5 0  0.65625 0.5 0  0.6875 0.5 0  0.71875 0.5 0  0.75 0.5 0  0.78125 0.5 0  0.8125 0.5 0  0.84375 0.5 0  0.875 0.5 0  0.90625 0.5 0  0.9375 0.5 0  0.96875 0.5 0  1 0.5 0  0 0.53125 0  0.03125 0.53125 0  0.0625 0.53125 0  0.09375 0.53125 0  0.125 0.53125 0  0.15625 0.53125 0  0.1875 0.53125 0  0.21875 0.53125 0  0.25 0.53125 0  0.28125 0.53125 0  0.3125 0.53125 0  0.34375 0.53125 0  0.375 0.53125 0  0.40625 0.53125 0  0.4375 0.53125 0  0.46875 0.53125 0  0.5 0.53125 0  0.53125 0.53125 0  0.5625 0.53125 0  0.59375 0.53125 0  0.625 0.53125 0  0.65625 0.53125 0  0.6875 0.53125 0  0.71875 0.53125 0  0.75 0.53125 0  0.78125 0.531
[...]
<PointData  Scalars="phi"> 
<DataArray  type="Float64"  Name="phi"  format="ascii">0.0000000000000000e+00  0.0000000000000000e+00  0.0000000000000000e+00  0.0000000000000000e+00  0.0000000000000000e+00  0.0000000000000000e+00  0.0000000000000000e+00  0.0000000000000000e+00  0.0000000000000000e+00  0.0000000000000000e+00  0.0000000000000000e+00  0.0000000000000000e+00  0.0000000000000000e+00  0.0000000000000000e+00  0.0000000000000000e+00  0.0000000000000000e+00  0.0000000000000000e+00  0.0000000000000000e+00  0.0000000000000000e+00  0.0000000000000000e+00  0.0000000000000000e+00  0.0000000000000000e+00  0.0000000000000000e+00  0.0000000000000000e+00  0.0000000000000000e+00  0.0000000000000000e+00  0.0000000000000000e+00  0.0000000000000000e+00  0.0000000000000000e+00  0.0000000000000000e+00  0.0000000000000000e+00  0.0000000000000000e+00  0.0000000000000000e+00  0.0000000000000000e+00  -7.9655744804463222e-09  -1.1942914859261425e-08  -1.3721321513689822e-08  -1.4002362018534654e-08  -1.3189666872372077e-08  -1.1555631303593667e-08  -9.3107543286584226e-09  -6.6346887815044793e-09  -3.6904125528757830e-09  -6.3016343777996123e-10  2.4029698147028032e-09  5.2758437327793332e-09  7.8673488556835809e-09  1.0071114696625785e-08  1.1798378020039137e-08  1.2980694846729766e-08  1.3572267595296079e-08  1.3551730513321859e-08  1.2923301104023318e-08  1.1717269841765350e-08  9.9898708766128238e-09  7.8226596516968633e-09  5.3216310481004445e-09  2.6164665040290709e-09  -1.3945166541920380e-10  -2.7671682634404962e-09  -5.0564208959872733e-09  -6.7519852811913060e-09  -7.5229205238664338e-09  -6.8913408414298453e-09  -4.0536993770853678e-09  0.0000000000000000e+00  0.0000000000000000e+00  -1.1942914859260790e-08  -1.7595972268180635e-08  -1.9916375002656945e-08  -1.9885242782656802e-08  -1.8151582206279636e-08  -1.5185354016918107e-08  -1.1357503576591539e-08  -6.9814448066236762e-09  -2.3339861291642676e-09  2.3350465042127025e-09  6.7995659980543607e-09  1.0857591175812887e-08  1.4333563152399337e-08  1.7081548734763172e-08  1.8988616054713401e-08  1.9977888335814576e-08  2.0010938235933291e-08  1.9089310289326900e-08  1.7255070741391521e-08  1.4590393959795078e-08  1.1216312008436322e-08  7.2908900313907303e-09  3.0072624068994797e-09  -1.4077948627350345e-09  -5.6937096388540081e-09  -9.5527071597346929e-09  -1.2640350506702453e-08  -1.4545064044203284e-08  -1.4747434587962367e-08  -1.2541996033343207e-08  -6.8913408414298453e-09  0.0000000000000000e+00  0.0000000000000000e+00  -1.3721321513687492e-08  -1.9916375002654404e-08  -2.2514931578549180e-08  -2.2465993116721125e-08  -2.0475329757062622e-08  -1.7087751369348237e-08  -1.2744715979466123e-08  -7.8200612748418455e-09  -2.6404287955904062e-09  2.5042641428222340e-09  7.3566125290845983e-09  1.1691317627995290e-08  1.5316943124013918e-08  1.8078707431857877e-08  1.9861525122647506e-08  2.0592745474602387e-08  2.0244212983351790e-08  1.8833420667626534e-08  1.6423659113189776e-08  1.3123193981089136e-08  9.0836419925539473e-09  4.4978714327856877e-09  -4.0205572909670549e-10  -5.3461305026641012e-09  -1.0025704525716900e-08  -1.4089194428633377e-08  -1.7131694503201309e-08  -1.8674772835409002e-08  -1.8131101750255133e-08  -1.4747434587962791e-08  -7.5229205238662221e-09  0.0000000000000000e+00  0.0000000000000000e+00  -1.4002362018529572e-08  -1.9885242782649602e-08  -2.2465993116714349e-08  -2.2550664205123613e-08  -2.0785961417230724e-08  -1.7694598208965514e-08  -1.3708680944910686e-08  -9.1945975672652088e-09  -4.4693118585355240e-09  1.9016972702005973e-10  4.5422184139773592e-09  8.3792596062054247e-09  1.1528444654167004e-08  1.3853372345075966e-08  1.5256161937083762e-08  1.5679373436927805e-08  1.5107428943743273e-08  1.3567325879314345e-08  1.1128559833010881e-08  7.9023001652568062e-09  4.0399931043248158e-09  -2.6828686446336793e-10  -4.7952455111936477e-09  -9.2768356509837782e-09  -1.3410815027620584e-08  -1.6852092793882544e-08  -1.9203169161218872e-08  -1.9997631316786302e-08  -1.8674772835409002e-08  -1.4545064044203284e-08  -6.7519852811908824e-09  0.0000000000000000e+00  0.0000000000000000e+00  -1.3189666872364030e-08  -1.8151582206261848e-08  -2.0475329757043140e-08  -2.0785961417218866e-08  -1.9606807294008960e-08  -1.7371135134109923e-08  -1.4438896576219449e-08  -1.1112160830575784e-08  -7.6469705015049801e-09  -4.2614101665864918e-09  -1.1404833883250877e-09  1.5614013997895674e-09  3.7195753666924508e-09  5.2392432280311355e-09  6.0560997730436928e-09  6.1370483983858922e-09  5.4807558607480577e-09  4.1178832793763046e-09  2.1109345993787349e-09  -4.4623519262644421e-10  -3.4291044062839627e-09  -6.6830998053615429e-09  -1.0023754232897948e-08  -1.3235876981730933e-08  -1.6071054961063033e-08  -1.8242660459426698e-08  -1.9417471577511016e-08  -1.9203169161220566e-08  -1.7131694503202156e-08  -1.2640350506703300e-08  -5.0564208959872733e-09  0.0000000000000000e+00  0.0000000000000000e+00  -1.1555631303577574e-08  -1.5185354016889308e-08  -1.7087751369307580e-08  -1.7694598208926551e-08  -1.7371135134086206e-08  -1.6417386766751725e-08  -1.5075633959716375e-08  -1.3539723587804604e-08  -1.1963854272547687e-08  -1.0469863295344076e-08  -9.1528167947809639e-09  -8.0850673036012921e-09  -7.3190716116545155e-09  -6.8892755858664792e-09  -6.8133356463457161e-09  -7.0928907802410450e-09  -7.7140379564233752e-09  -8.6476022724878501e-09  -9.8492316581012576e-09  -1.1259283328569165e-08  -1.2802403897840145e-08  -1.4386636135466441e-08  -1.5901813576670872e-08  -1.7216934438618476e-08  -1.8176152079731197e-08  -1.8593011294446731e-08  -1.8242660459431780e-08  -1.6852092793885932e-08  -1.4089194428636765e-08  -9.5527071597372340e-09  -2.7671682634409197e-09  0.0000000000000000e+00  0.0000000000000000e+00  -9.3107543286347057e-09  -1.1357503576547493e-08  -1.2744715979402595e-08  -1.3708680944842923e-08  -1.4438896576161850e-08  -1.5075633959679105e-08  -1.5713177454613128e-08  -1.6406141107630468e-08  -1.7176969926006291e-08  -1.8023476897550530e-08  -1.8925810957462505e-08  -1.9852585181800232e-08  -2.0766074392558524e-08  -2.1626475902479235e-08  -2.2395259019316000e-08  -2.3037634420782920e-08  -2.3524167932258825e-08  -2.3831551485631395e-08  -2.3942529837582075e-08  -2.3844965692812009e-08  -2.3530008379969109e-08  -2.2989313016598582e-08  -2.2211241127496233e-08  -2.1175967062099019e-08  -1.9849431709318582e-08  -1.8176152079729503e-08  -1.6071054961068116e-08  -1.3410815027620584e-08  -1.0025704525719441e-08  -5.6937096388557021e-09  -1.3945166541750974e-10  0.0000000000000000e+00  0.0000000000000000e+00  -6.6346887814693274e-09  -6.9814448065576076e-09  -7.8200612747512130e-09  -9.1945975671618707e-09  -1.1112160830474140e-08  -1.3539723587724983e-08  -1.6406141107581340e-08  -1.9607780180270259e-08  -2.3016305138352450e-08  -2.6487489611027034e-08  -2.9870241720217149e-08  -3.3015277901813725e-08  -3.5783051798257584e-08  -3.8050657898089288e-08  -3.9717505472826592e-08  -4.0709612923793317e-08  -4.0982416232210128e-08  -4.0522023524970508e-08  -3.9344883473728651e-08  -3.7495869316300957e-08  -3.5044813231632505e-08  -3.2081558742616119e-08  -2.8709634691955025e-08  -2.5038699236388747e-08  -2.1175967062100713e-08  -1.7216934438618476e-08  -1.3235876981727545e-08  -9.2768356509803900e-09  -5.3461305026624071e-09  -1.4077948627350345e-09  2.6164665040303415e-09  0.0000000000000000e+00  0.0000000000000000e+00  -3.6904125528300432e-09  -2.3339861290736351e-09  -2.6404287954650453e-09  -4.4693118583864462e-09  -7.6469705013491261e-09  -1.1963854272405386e-08  -1.7176969925889401e-08  -2.3016305138284687e-08  -2.9194034015021951e-08  -3.5415400396542364e-08  -4.1390335976526841e-08  -4.6845034131073066e-08  -5.1532843720720934e-08  -5.5243967629587573e-08  -5.7813554134843768e-08  -5.9127862178407712e-08  -5.9128269434304651e-08  -5.7812977714942883e-08  -5.5236354896846392e-08  -5.1505936219485498e-08  -4.6777190254953288e-08  -4.1246236287323032e-08  -3.5140781791140959e-08  -2.8709634691949942e-08  -2.2211241127492845e-08  -1.5901813576669178e-08  -1.0023754232892866e-08  -4.7952455111902596e-09  -4.0205572909162330e-10  3.0072624069045619e-09  5.3216310481029856e-09  0.0000000000000000e+00  0.0000000000000000e+00  -6.3016343771812782e-10  2.3350465043321341e-09  2.5042641429865584e-09  1.9016972722504170e-10  -4.2614101663611810e-09  -1.0469863295122154e-08  -1.8023476897352324e-08  -2.6487489610874568e-08  -3.5415400396457660e-08  -4.4362411875381518e-08  -5.2899952043714300e-08  -6.0630321542645815e-08  -6.7200630229928710e-08  -7.2315307091550575e-08  -7.5746589230163298e-08  -7.7342519206398168e-08  -7.7032106106391215e-08  -7.4827434336485425e-08  -7.0822634373039207e-08  -6.5189759964542294e-08  -5.8171744876990515e-08  -5.0072737832402412e-08  -4.1246236287316256e-08  -3.2081558742600873e-08  -2.2989313016585030e-08  -1.4386636135451194e-08  -6.6830998053462963e-09  -2.6828686445320353e-10  4.4978714327966992e-09  7.2908900313983535e-09  7.8226596517002514e-09  0.0000000000000000e+00  0.0000000000000000e+00  2.4029698147815773e-09  6.7995659982068266e-09  7.3566125293022858e-09  4.5422184142467157e-09  -1.1404833880252380e-09  -9.1528167944743380e-09  -1.8925810957171125e-08  -2.9870241719966427e-08  -4.1390335976335411e-08  -5.2899952043605880e-08  -6.3840065924918572e-08  -7.3696459261275569e-08  -8.2016602685998535e-08  -8.8424847910128326e-08  -9.2635177569332973e-08  -9.4460910373152986e-08  -9.3820917871126608e-08  -9.0742075524614184e-08  -8.5357841686646327e-08  -7.7903030161505369e-08  -6.8705011797480189e-08  -5.8171744876975268e-08  -4.6777190254932959e-08  -3.5044813231602012e-08  -2.3530008379940310e-08  -1.2802403897809651e-08  -3.4291044062568577e-09  4.0399931043485327e-09  9.0836419925725820e-09  1.1216312008448180e-08  9.9898708766183295e-09  0.0000000000000000e+00  0.0000000000000000e+00  5.2758437328767420e-09  1.0857591176002199e-08  1.1691317628266340e-08  8.3792596065416968e-09  1.5614014001707322e-09  -8.0850673031981045e-09  -1.9852585181402127e-08  -3.3015277901446113e-08  -4.6845034130763052e-08  -6.0630321542413728e-08  -7.3696459261150208e-08  -8.5426109340685769e-08  -9.5278837559250916e-08  -1.0280871461951836e-07  -1.0767907636469613e-07  -1.0967373074645216e-07  -1.0870408533751913e-07  -1.0481186747585866e-07  -9.8167314735923383e-08  -8.9062921234189561e-08  -7.7903030161491817e-08  -6.5189759964515189e-08  -5.1505936219449922e-08  -3.7495869316255217e-08  -2.3844965692764575e-08  -1.1259283328521731e-08  -4.4623519258409257e-10  7.9023001652923816e-09  1.3123193981117935e-08  1.4590393959814560e-08  1.1717269841775091e-08  0.0000000000000000e+00  0.0000000000000000e+00  7.8673488557992009e-09  1.4333563152627612e-08  1.5316943124339178e-08  1.1528444654574427e-08  3.7195753671591660e-09  -7.3190716111539190e-09  -2.0766074392049457e-08  -3.5783051797771387e-08  -5.1532843720282171e-08  -6.7200630229562792e-08  -8.2016602685732567e-08  -9.5278837559107767e-08  -1.0637510735447563e-07  -1.1480248673733674e-07  -1.2018376961530170e-07  -1.2227989864641820e-07  -1.2099781650114525e-07  -1.1639337206575300e-07  -1.0866914826376925e-07  -9.8167314735904748e-08  -8.5357841686613293e-08  -7.0822634372990926e-08  -5.5236354896789641e-08  -3.9344883473661736e-08  -2.3942529837512618e-08  -9.8492316580360361e-09  2.1109345994397213e-09  1.1128559833061703e-08  1.6423659113227893e-08  1.7255070741417779e-08  1.2923301104036659e-08  0.0000000000000000e+00  0.0000000000000000e+00  1.0071114696760886e-08  1.7081548735027447e-08  1.8078707432236925e-08  1.3853372345554540e-08  5.2392432285859421e-09  -6.8892755852625447e-09  -2.1626475901854971e-08  -3.8050657897472648e-08  -5.5243967629010744e-08  -7.2315307091038967e-08  -8.8424847909711586e-08  -1.0280871461922021e-07  -1.1480248673718131e-07  -1.2386229608082072e-07  -1.2958246147649056e-07  -1.3170880110151110e-07  -1.3014698654991889e-07  -1.2496554528778932e-07  -1.1639337206573521e-07  -1.0481186747582139e-07  -9.0742075524561668e-08  -7.4827434336416815e-08  -5.7812977714864109e-08  -4.0522023524887499e-08  -2.3831551485548386e-08  -8.6476022724090760e-09  4.1178832794491494e-09  1.3567325879375755e-08  1.8833420667675662e-08  1.9089310289359934e-08  1.3551730513338376e-08  0.0000000000000000e+00  0.0000000000000000e+00  1.1798378020192556e-08  1.8988616055013356e-08  1.9861525123080763e-08  1.5256161937631581e-08  6.0560997736853202e-09  -6.8133356456392906e-09  -2.2395259018577388e-08  -3.9717505472084168e-08  -5.7813554134128025e-08  -7.5746589229505577e-08  -9.2635177568760802e-08  -1.0767907636423915e-07  -1.2018376961498321e-07  -1.2958246147632560e-07  -1.3545442607329606e-07  -1.3753881902621549e-07  -1.3574328962093618e-07  -1.3014698654989856e-07  -1.2099781650110628e-07  -1.0870408533746154e-07  -9.3820917871052916e-08  -7.7032106106303547e-08  -5.9128269434208089e-08  -4.0982416232109331e-08  -2.3524167932160145e-08  -7.7140379563285075e-09  5.4807558608336080e-09  1.5107428943815483e-08  2.0244212983409176e-08  2.0010938235971620e-08  1.3572267595315243e-08  0.0000000000000000e+00  0.0000000000000000e+00  1.2980694846900152e-08  1.9977888336148333e-08  2.0592745475086611e-08  1.5679373437543400e-08  6.1370483991088348e-09  -7.0928907794392357e-09  -2.3037634419933385e-08  -4.0709612922927332e-08  -5.9127862177558495e-08  -7.7342519205597325e-08  -9.4460910372430784e-08  -1.0967373074583729e-07  -1.2227989864593500e-07  -1.3170880110117800e-07  -1.3753881902604587e-07  -1.3951122944115320e-07  -1.3753881902619458e-07  -1.3170880110146975e-07  -1.2227989864635806e-07  -1.0967373074637452e-07  -9.4460910373059216e-08  -7.7342519206291415e-08  -5.9127862178293369e-08  -4.0709612923675791e-08  -2.3037634420668253e-08  -7.0928907801325454e-09  6.1370483984840289e-09  1.5679373437010695e-08  2.0592745474667343e-08  1.9977888335858820e-08  1.2980694846752041e-08  0.0000000000000000e+00  0.0000000000000000e+00  1.3572267595481367e-08  2.0010938236297516e-08  2.0244212983881821e-08  1.5107428944418994e-08  5.4807558615446921e-09  -7.7140379555344142e-09  -2.3524167931308454e-08  -4.0982416231231382e-08  -5.9128269433331833e-08  -7.7032106105455667e-08  -9.3820917870260517e-08  -1.0870408533675236e-07  -1.2099781650050341e-07  -1.3014698654942190e-07  -1.3574328962059885e-07  -1.3753881902602517e-07  -1.3545442607325477e-07  -1.2958246147642936e-07  -1.2018376961522207e-07  -1.0767907636459957e-07  -9.2635177569220741e-08  -7.5746589230037513e-08  -5.7813554134710361e-08  -3.9717505472692338e-08  -2.2395259019187675e-08  -6.8133356462237433e-09  6.0560997731533835e-09  1.5256161937175454e-08  1.9861525122719503e-08  1.8988616054762740e-08  1.1798378020064178e-08  0.0000000000000000e+00  0.0000000000000000e+00  1.3551730513520912e-08  1.9089310289716958e-08  1.8833420668195316e-08  1.3567325880042370e-08  4.1178832802368900e-09  -8.6476022715230796e-09  -2.3831551484593780e-08  -4.0522023523891388e-08  -5.7812977713860375e-08  -7.4827434335429175e-08  -9.0742075523618920e-08  -1.0481186747495402e-07  -1.1639337206496441e-07  -1.2496554528713837e-07  -1.3014698654940210e-07  -1.3170880110113756e-07  -1.2958246147626503e-07  -1.2386229608074026e-07  -1.1480248673723891e-07  -1.0280871461940444e-07  -8.8424847909997883e-08  -7.2315307091408273e-08  -5.5243967629436802e-08  -3.8050657897938517e-08  -2.1626475902335239e-08  -6.8892755857334951e-09  5.2392432281531083e-09  1.3853372345176340e-08  1.8078707431935804e-08  1.7081548734816959e-08  1.0071114696652784e-08  0.0000000000000000e+00  0.0000000000000000e+00  1.2923301104232959e-08  1.7255070741801909e-08  1.6423659113788629e-08  1.1128559833783375e-08  2.1109346002892953e-09  -9.8492316570746537e-09  -2.3942529836472462e-08  -3.9344883472568216e-08  -5.5236354895671557e-08  -7.0822634371881313e-08  -8.5357841685536714e-08  -9.8167314734899320e-08  -1.0866914826285276e-07  -1.1639337206494620e-07  -1.2099781650046529e-07  -1.2227989864587560e-07  -1.2018376961490401e-07  -1.1480248673708263e-07  -1.0637510735435958e-07  -9.5278837559119626e-08  -8.2016602685851999e-08  -6.7200630229768621e-08  -5.1532843720553222e-08  -3.5783051798093260e-08  -2.0766074392400976e-08  -7.3190716115113669e-09  3.7195753668220469e-09  1.1528444654274578e-08  1.5316943124096927e-08  1.4333563152456935e-08  7.8673488557113212e-09  0.0000000000000000e+00  0.0000000000000000e+00  1.1717269841980708e-08  1.4590393960218595e-08  1.3123193981710011e-08  7.9023001660547112e-09  -4.4623519167607325e-10  -1.1259283327496821e-08  -2.3844965691648186e-08  -3.7495869315074454e-08  -5.1505936218231889e-08  -6.5189759963298850e-08  -7.7903030160304277e-08  -8.9062921233063008e-08  -9.8167314734878144e-08  -1.0481186747491676e-07  -1.0870408533669582e-07  -1.0967373074576101e-07  -1.0767907636414513e-07  -1.0280871461910882e-07  -9.5278837558977324e-08  -8.5426109340538385e-08  -7.3696459261114633e-08  -6.0630321542469632e-08  -4.6845034130891801e-08  -3.3015277901637542e-08  -1.9852585181634214e-08  -8.0850673034505203e-09  1.5614013999208575e-09  8.3792596063138450e-09  1.1691317628078299e-08  1.0857591175869215e-08  5.2758437328081323e-09  0.0000000000000000e+00  0.0000000000000000e+00  9.9898708768309347e-09  1.1216312008864921e-08  9.0836419931807517e-09  4.0399931051345793e-09  -3.4291044053149570e-09  -1.2802403896739002e-08  -2.3530008378771404e-08  -3.5044813230365344e-08  -4.6777190253653939e-08  -5.8171744875687778e-08  -6.8705011796211333e-08  -7.7903030160289030e-08  -8.5357841685505374e-08  -9.0742075523565557e-08  -9.3820917870187248e-08  -9.4460910372338484e-08  -9.2635177568651111e-08  -8.8424847909580296e-08  -8.2016602685582642e-08  -7.3696459260982495e-08  -6.3840065924742389e-08  -5.2899952043526259e-08  -4.1390335976338800e-08  -2.9870241720032496e-08  -1.8925810957291404e-08  -9.1528167946352743e-09  -1.1404833881963387e-09  4.5422184140806972e-09  7.3566125291659135e-09  6.7995659981094178e-09  2.4029698147307553e-09  0.0000000000000000e+00  0.0000000000000000e+00  7.8226596519137037e-09  7.2908900318167878e-09  4.4978714334116451e-09  -2.6828686365868663e-10  -6.6830998043925372e-09  -1.4386636134366992e-08  -2.2989313015395795e-08  -3.2081558741340488e-08  -4.1246236286005049e-08  -5.0072737831077652e-08  -5.8171744875675920e-08  -6.5189759963268356e-08  -7.0822634371830491e-08  -7.4827434335360565e-08  -7.7032106105368846e-08  -7.7342519205491154e-08  -7.5746589229380639e-08  -7.2315307090894971e-08  -6.7200630229399314e-08  -6.0630321542235851e-08  -5.2899952043421227e-08  -4.4362411875193477e-08  -3.5415400396357710e-08  -2.6487489610840686e-08  -1.8023476897386205e-08  -1.0469863295200081e-08  -4.2614101664611309e-09  1.9016972712000962e-10  2.5042641428984670e-09  2.3350465042643715e-09  -6.3016343775327969e-10  0.0000000000000000e+00  0.0000000000000000e+00  5.3216310483130498e-09  3.0072624073170670e-09  -4.0205572848599474e-10  -4.7952455104059071e-09  -1.0023754231957741e-08  -1.5901813575596834e-08  -2.2211241126315469e-08  -2.8709634690692946e-08  -3.5140781789829752e-08  -4.1246236285994884e-08  -4.6777190253631916e-08  -5.1505936218194619e-08  -5.5236354895608877e-08  -5.7812977713779907e-08  -5.9128269433234425e-08  -5.9127862177444231e-08  -5.7813554133994194e-08  -5.5243967628859125e-08  -5.1532843720110224e-08  -4.6845034130583481e-08  -4.1390335976150758e-08  -3.5415400396269619e-08  -2.9194034014845769e-08  -2.3016305138186431e-08  -1.7176969925855519e-08  -1.1963854272415550e-08  -7.6469705013863955e-09  -4.4693118584423504e-09  -2.6404287955234906e-09  -2.3339861291168338e-09  -3.6904125528524896e-09  0.0000000000000000e+00  0.0000000000000000e+00  2.6164665042319353e-09  -1.4077948623377761e-09  -5.3461305020796485e-09  -9.2768356502299188e-09  -1.3235876980826302e-08  -1.7216934437585095e-08  -2.1175967060960607e-08  -2.5038699235170714e-08  -2.8709634690687863e-08  -3.2081558741321853e-08  -3.5044813230336545e-08  -3.7495869315030408e-08  -3.9344883472507230e-08  -4.0522023523810073e-08  -4.09