<?xml version="1.0"?>
<VTKFile type="UnstructuredGrid"  version="0.1"  >
<UnstructuredGrid>
<Piece  NumberOfPoints="1089" NumberOfCells="2048">
<Points>
<DataArray  type="Float64"  NumberOfComponents="3"  format="ascii">0 0 0  0.03125 0 0  0.0625 0 0  0.09375 0 0  0.125 0 0  0.15625 0 0  0.1875 0 0  0.21875 0 0  0.25 0 0  0.28125 0 0  0.3125 0 0  0.34375 0 0  0.375 0 0  0.40625 0 0  0.4375 0 0  0.46875 0 0  0.5 0 0  0.53125 0 0  0.5625 0 0  0.59375 0 0  0.625 0 0  0.65625 0 0  0.6875 0 0  0.71875 0 0  0.75 0 0  0.78125 0 0  0.8125 0 0  0.84375 0 0  0.875 0 0  0.90625 0 0  0.9375 0 0  0.96875 0 0  1 0 0  0 0.03125 0  0.03125 0.03125 0  0.0625 0.03125 0  0.09375 0.03125 0  0.125 0.03125 0  0.15625 0.03125 0  0.1875 0.03125 0  0.21875 0.03125 0  0.25 0.03125 0  0.28125 0.03125 0  0.3125 0.03125 0  0.34375 0.03125 0  0.375 0.03125 0  0.40625 0.03125 0  0.4375 0.03125 0  0.46875 0.03125 0  0.5 0.03125 0  0.53125 0.03125 0  0.5625 0.03125 0  0.59375 0.03125 0  0.625 0.03125 0  0.65625 0.03125 0  0.6875 0.03125 0  0.71875 0.03125 0  0.75 0.03125 0  0.78125 0.03125 0  0.8125 0.03125 0  0.84375 0.03125 0  0.875 0.03125 0  0.90625 0.03125 0  0.9375 0.03125 0  0.96875 0.03125 0  1 0.03125 0  0 0.0625 0  0.03125 0.0625 0  0.0625 0.0625 0  0.09375 0.0625 0  0.125 0.0625 0  0.15625 0.0625 0  0.1875 0.0625 0  0.21875 0.0625 0  0.25 0.0625 0  0.28125 0.0625 0  0.3125 0.0625 0  0.34375 0.0625 0  0.375 0.0625 0  0.40625 0.0625 0  0.4375 0.0625 0  0.46875 0.0625 0  0.5 0.0625 0  0.53125 0.0625 0  0.5625 0.0625 0  0.59375 0.0625 0  0.625 0.0625 0  0.65625 0.0625 0  0.6875 0.0625 0  0.71875 0.0625 0  0.75 0.0625 0  0.78125 0.0625 0  0.8125 0.0625 0  0.84375 0.0625 0  0.875 0.0625 0  0.90625 0.0625 0  0.9375 0.0625 0  0.96875 0.0625 0  1 0.0625 0  0 0.09375 0  0.03125 0.09375 0  0.0625 0.09375 0  0.09375 0.09375 0  0.125 0.09375 0  0.15625 0.09375 0  0.1875 0.09375 0  0.21875 0.09375 0  0.25 0.09375 0  0.28125 0.09375 0  0.3125 0.09375 0  0.34375 0.09375 0  0.375 0.09375 0  0.40625 0.09375 0  0.4375 0.09375 0  0.46875 0.09375 0  0.5 0.09375 0  0.53125 0.09375 0  0.5625 0.09375 0  0.59375 0.09375 0  0.625 0.09375 0  0.65625 0.09375 0  0.6875 0.09375 0  0.71875 0.09375 0  0.75 0.09375 0  0.78125 0.09375 0  0.8125 0.09375 0  0.84375 0.09375 0  0.875 0.09375 0  0.90625 0.09375 0  0.9375 0.09375 0  0.96875 0.09375 0  1 0.09375 0  0 0.125 0  0.03125 0.125 0  0.0625 0.125 0  0.09375 0.125 0  0.125 0.125 0  0.15625 0.125 0  0.1875 0.125 0  0.21875 0.125 0  0.25 0.125 0  0.28125 0.125 0  0.3125 0.125 0  0.34375 0.125 0  0.375 0.125 0  0.40625 0.125 0  0.4375 0.125 0  0.46875 0.125 0  0.5 0.125 0  0.53125 0.125 0  0.5625 0.125 0  0.59375 0.125 0  0.625 0.125 0  0.65625 0.125 0  0.6875 0.125 0  0.71875 0.125 0  0.75 0.125 0  0.78125 0.125 0  0.8125 0.125 0  0.84375 0.125 0  0.875 0.125 0  0.90625 0.125 0  0.9375 0.125 0  0.96875 0.125 0  1 0.125 0  0 0.15625 0  0.03125 0.15625 0  0.0625 0.15625 0  0.09375 0.15625 0  0.125 0.15625 0  0.15625 0.15625 0  0.1875 0.15625 0  0.21875 0.15625 0  0.25 0.15625 0  0.28125 0.15625 0  0.3125 0.15625 0  0.34375 0.15625 0  0.375 0.15625 0  0.40625 0.15625 0  0.4375 0.15625 0  0.46875 0.15625 0  0.5 0.15625 0  0.53125 0.15625 0  0.5625 0.15625 0  0.59375 0.15625 0  0.625 0.15625 0  0.65625 0.15625 0  0.6875 0.15625 0  0.71875 0.15625 0  0.75 0.15625 0  0.78125 0.15625 0  0.8125 0.15625 0  0.84375 0.15625 0  0.875 0.15625 0  0.90625 0.15625 0  0.9375 0.15625 0  0.96875 0.15625 0  1 0.15625 0  0 0.1875 0  0.03125 0.1875 0  0.0625 0.1875 0  0.09375 0.1875 0  0.125 0.1875 0  0.15625 0.1875 0  0.1875 0.1875 0  0.21875 0.1875 0  0.25 0.1875 0  0.28125 0.1875 0  0.3125 0.1875 0  0.34375 0.1875 0  0.375 0.1875 0  0.40625 0.1875 0  0.4375 0.1875 0  0.46875 0.1875 0  0.5 0.1875 0  0.53125 0.1875 0  0.5625 0.1875 0  0.59375 0.1875 0  0.625 0.1875 0  0.65625 0.1875 0  0.6875 0.1875 0  0.71875 0.1875 0  0.75 0.1875 0  0.78125 0.1875 0  0.8125 0.1875 0  0.84375 0.1875 0  0.875 0.1875 0  0.90625 0.1875 0  0.9375 0.1875 0  0.96875 0.1875 0  1 0.1875 0  0 0.21875 0  0.03125 0.21875 0  0.0625 0.21875 0  0.09375 0.21875 0  0.125 0.21875 0  0.15625 0.21875 0  0.1875 0.21875 0  0.21875 0.21875 0  0.25 0.21875 0  0.28125 0.21875 0  0.3125 0.21875 0  0.34375 0.21875 0  0.375 0.21875 0  0.40625 0.21875 0  0.4375 0.21875 0  0.46875 0.21875 0  0.5 0.21875 0  0.53125 0.21875 0  0.5625 0.21875 0  0.59375 0.21875 0  0.625 0.21875 0  0.65625 0.21875 0  0.6875 0.21875 0  0.71875 0.21875 0  0.75 0.21875 0  0.78125 0.21875 0  0.8125 0.21875 0  0.84375 0.21875 0  0.875 0.21875 0  0.90625 0.21875 0  0.9375 0.21875 0  0.96875 0.21875 0  1 0.21875 0  0 0.25 0  0.03125 0.25 0  0.0625 0.25 0  0.09375 0.25 0  0.125 0.25 0  0.15625 0.25 0  0.1875 0.25 0  0.21875 0.25 0  0.25 0.25 0  0.28125 0.25 0  0.3125 0.25 0  0.34375 0.25 0  0.375 0.25 0  0.40625 0.25 0  0.4375 0.25 0  0.46875 0.25 0  0.5 0.25 0  0.53125 0.25 0  0.5625 0.25 0  0.59375 0.25 0  0.625 0.25 0  0.65625 0.25 0  0.6875 0.25 0  0.71875 0.25 0  0.75 0.25 0  0.78125 0.25 0  0.8125 0.25 0  0.84375 0.25 0  0.875 0.25 0  0.90625 0.25 0  0.9375 0.25 0  0.96875 0.25 0  1 0.25 0  0 0.28125 0  0.03125 0.28125 0  0.0625 0.28125 0  0.09375 0.28125 0  0.125 0.28125 0  0.15625 0.28125 0  0.1875 0.28125 0  0.21875 0.28125 0  0.25 0.28125 0  0.28125 0.28125 0  0.3125 0.28125 0  0.34375 0.28125 0  0.375 0.28125 0  0.40625 0.28125 0  0.4375 0.28125 0  0.46875 0.28125 0  0.5 0.28125 0  0.53125 0.28125 0  0.5625 0.28125 0  0.59375 0.28125 0  0.625 0.28125 0  0.65625 0.28125 0  0.6875 0.28125 0  0.71875 0.28125 0  0.75 0.28125 0  0.78125 0.28125 0  0.8125 0.28125 0  0.84375 0.28125 0  0.875 0.28125 0  0.90625 0.28125 0  0.9375 0.28125 0  0.96875 0.28125 0  1 0.28125 0  0 0.3125 0  0.03125 0.3125 0  0.0625 0.3125 0  0.09375 0.3125 0  0.125 0.3125 0  0.15625 0.3125 0  0.1875 0.3125 0  0.21875 0.3125 0  0.25 0.3125 0  0.28125 0.3125 0  0.3125 0.3125 0  0.34375 0.3125 0  0.375 0.3125 0  0.40625 0.3125 0  0.4375 0.3125 0  0.46875 0.3125 0  0.5 0.3125 0  0.53125 0.3125 0  0.5625 0.3125 0  0.59375 0.3125 0  0.625 0.3125 0  0.65625 0.3125 0  0.6875 0.3125 0  0.71875 0.3125 0  0.75 0.3125 0  0.78125 0.3125 0  0.8125 0.3125 0  0.84375 0.3125 0  0.875 0.3125 0  0.90625 0.3125 0  0.9375 0.3125 0  0.96875 0.3125 0  1 0.3125 0  0 0.34375 0  0.03125 0.34375 0  0.0625 0.34375 0  0.09375 0.34375 0  0.125 0.34375 0  0.15625 0.34375 0  0.1875 0.34375 0  0.21875 0.34375 0  0.25 0.34375 0  0.28125 0.34375 0  0.3125 0.34375 0  0.34375 0.34375 0  0.375 0.34375 0  0.40625 0.34375 0  0.4375 0.34375 0  0.46875 0.34375 0  0.5 0.34375 0  0.53125 0.34375 0  0.5625 0.34375 0  0.59375 0.34375 0  0.625 0.34375 0  0.65625 0.34375 0  0.6875 0.34375 0  0.71875 0.34375 0  0.75 0.34375 0  0.78125 0.34375 0  0.8125 0.34375 0  0.84375 0.34375 0  0.875 0.34375 0  0.90625 0.34375 0  0.9375 0.34375 0  0.96875 0.34375 0  1 0.34375 0  0 0.375 0  0.03125 0.375 0  0.0625 0.375 0  0.09375 0.375 0  0.125 0.375 0  0.15625 0.375 0  0.1875 0.375 0  0.21875 0.375 0  0.25 0.375 0  0.28125 0.375 0  0.3125 0.375 0  0.34375 0.375 0  0.375 0.375 0  0.40625 0.375 0  0.4375 0.375 0  0.46875 0.375 0  0.5 0.375 0  0.53125 0.375 0  0.5625 0.375 0  0.59375 0.375 0  0.625 0.375 0  0.65625 0.375 0  0.6875 0.375 0  0.71875 0.375 0  0.75 0.375 0  0.78125 0.375 0  0.8125 0.375 0  0.84375 0.375 0  0.875 0.375 0  0.90625 0.375 0  0.9375 0.375 0  0.96875 0.375 0  1 0.375 0  0 0.40625 0  0.03125 0.40625 0  0.0625 0.40625 0  0.09375 0.40625 0  0.125 0.40625 0  0.15625 0.40625 0  0.1875 0.40625 0  0.21875 0.40625 0  0.25 0.40625 0  0.28125 0.40625 0  0.3125 0.40625 0  0.34375 0.40625 0  0.375 0.40625 0  0.40625 0.40625 0  0.4375 0.40625 0  0.46875 0.40625 0  0.5 0.40625 0  0.53125 0.40625 0  0.5625 0.40625 0  0.59375 0.40625 0  0.625 0.40625 0  0.65625 0.40625 0  0.6875 0.40625 0  0.71875 0.40625 0  0.75 0.40625 0  0.78125 0.40625 0  0.8125 0.40625 0  0.84375 0.40625 0  0.875 0.40625 0  0.90625 0.40625 0  0.9375 0.40625 0  0.96875 0.40625 0  1 0.40625 0  0 0.4375 0  0.03125 0.4375 0  0.0625 0.4375 0  0.09375 0.4375 0  0.125 0.4375 0  0.15625 0.4375 0  0.1875 0.4375 0  0.21875 0.4375 0  0.25 0.4375 0  0.28125 0.4375 0  0.3125 0.4375 0  0.34375 0.4375 0  0.375 0.4375 0  0.40625 0.4375 0  0.4375 0.4375 0  0.46875 0.4375 0  0.5 0.4375 0  0.53125 0.4375 0  0.5625 0.4375 0  0.59375 0.4375 0  0.625 0.4375 0  0.65625 0.4375 0  0.6875 0.4375 0  0.71875 0.4375 0  0.75 0.4375 0  0.78125 0.4375 0  0.8125 0.4375 0  0.84375 0.4375 0  0.875 0.4375 0  0.90625 0.4375 0  0.9375 0.4375 0  0.96875 0.4375 0  1 0.4375 0  0 0.46875 0  0.03125 0.46875 0  0.0625 0.46875 0  0.09375 0.46875 0  0.125 0.46875 0  0.15625 0.46875 0  0.1875 0.46875 0  0.21875 0.46875 0  0.25 0.46875 0  0.28125 0.46875 0  0.3125 0.46875 0  0.34375 0.46875 0  0.375 0.46875 0  0.40625 0.46875 0  0.4375 0.46875 0  0.46875 0.46875 0  0.5 0.46875 0  0.53125 0.46875 0  0.5625 0.46875 0  0.59375 0.46875 0  0.625 0.46875 0  0.65625 0.46875 0  0.6875 0.46875 0  0.71875 0.46875 0  0.75 0.46875 0  0.78125 0.46875 0  0.8125 0.46875 0  0.84375 0.46875 0  0.875 0.46875 0  0.90625 0.46875 0  0.9375 0.46875 0  0.96875 0.46875 0  1 0.46875 0  0 0.5 0  0.03125 0.5 0  0.0625 0.5 0  0.09375 0.5 0  0.125 0.5 0  0.15625 0.5 0  0.1875 0.5 0  0.21875 0.5 0  0.25 0.5 0  0.28125 0.5 0  0.3125 0.5 0  0.34375 0.5 0  0.375 0.5 0  0.40625 0.5 0  0.4375 0.5 0  0.46875 0.5 0  0.5 0.5 0  0.53125 0.5 0  0.5625 0.5 0  0.59375 0.5 0  0.625 0.5 0  0.65625 0.5 0  0.6875 0.5 0  0.71875 0.5 0  0.75 0.5 0  0.78125 0.5 0  0.8125 0.5 0  0.84375 0.5 0  0.875 0.5 0  0.90625 0.5 0  0.9375 0.5 0  0.96875 0.5 0  1 0.5 0  0 0.53125 0  0.03125 0.53125 0  0.0625 0.53125 0  0.09375 0.53125 0  0.125 0.53125 0  0.15625 0.53125 0  0.1875 0.53125 0  0.21875 0.53125 0  0.25 0.53125 0  0.28125 0.53125 0  0.3125 0.53125 0  0.34375 0.53125 0  0.375 0.53125 0  0.40625 0.53125 0  0.4375 0.53125 0  0.46875 0.53125 0  0.5 0.53125 0  0.53125 0.53125 0  0.5625 0.53125 0  0.59375 0.53125 0  0.625 0.53125 0  0.65625 0.53125 0  0.6875 0.53125 0  0.71875 0.53125 0  0.75 0.53125 0  0.78125 0.531
[...]
<PointData  Scalars="phi"> 
<DataArray  type="Float64"  Name="phi"  format="ascii">0.0000000000000000e+00  0.0000000000000000e+00  0.0000000000000000e+00  0.0000000000000000e+00  0.0000000000000000e+00  0.0000000000000000e+00  0.0000000000000000e+00  0.0000000000000000e+00  0.0000000000000000e+00  0.0000000000000000e+00  0.0000000000000000e+00  0.0000000000000000e+00  0.0000000000000000e+00  0.0000000000000000e+00  0.0000000000000000e+00  0.0000000000000000e+00  0.0000000000000000e+00  0.0000000000000000e+00  0.0000000000000000e+00  0.0000000000000000e+00  0.0000000000000000e+00  0.0000000000000000e+00  0.0000000000000000e+00  0.0000000000000000e+00  0.0000000000000000e+00  0.0000000000000000e+00  0.0000000000000000e+00  0.0000000000000000e+00  0.0000000000000000e+00  0.0000000000000000e+00  0.0000000000000000e+00  0.0000000000000000e+00  0.0000000000000000e+00  0.0000000000000000e+00  2.0345347026424807e-05  3.9787672433378040e-05  5.7631211869778406e-05  7.3214931560914082e-05  8.5953019446608734e-05  9.5362916991894092e-05  1.0108617112351354e-04  1.0290338088594827e-04  1.0074337113510486e-04  9.4686500041639559e-05  8.4962069999986565e-05  7.1939972668284705e-05  5.6116891995985175e-05  3.8097585773695932e-05  1.8571950819879484e-05  -1.7112611603752578e-06  -2.1973078690703586e-05  -4.1434203620700003e-05  -5.9345015649165437e-05  -7.5014531940354487e-05  -8.7837200510021407e-05  -9.7316485156934647e-05  -1.0308432060955024e-04  -1.0491567561261863e-04  -1.0273765446864817e-04  -9.6632790067130106e-05  -8.6836433050738152e-05  -7.3728433367401138e-05  -5.7819689358091277e-05  -3.9734773103343512e-05  -2.0193319619443852e-05  0.0000000000000000e+00  0.0000000000000000e+00  3.9787672433378033e-05  7.7889575912079743e-05  1.1289085340673110e-04  1.4347858569792169e-04  1.6849696318290910e-04  1.8699565590015558e-04  1.9826870877919561e-04  2.0188322155323678e-04  1.9769715422836954e-04  1.8586578973836190e-04  1.6683669501250112e-04  1.4133339743617251e-04  1.1032839348988916e-04  7.5006500356763326e-05  3.6719927074338513e-05  -3.0632385044889638e-06  -4.2815171625835948e-05  -8.1006939223100176e-05  -1.1616736672763127e-04  -1.4693987429939624e-04  -1.7213508115530764e-04  -1.9077713055963547e-04  -2.0214192368540659e-04  -2.0578576043574817e-04  -2.0156325971651309e-04  -1.8963385991209165e-04  -1.7045667308411973e-04  -1.4477397973512414e-04  -1.1358421254102002e-04  -7.8105907749934978e-05  -3.9734773103343526e-05  0.0000000000000000e+00  0.0000000000000000e+00  5.7631211869778392e-05  1.1289085340673108e-04  1.6369423322081669e-04  2.0811994223738427e-04  2.4448147638702359e-04  2.7139351043436587e-04  2.8782661784876914e-04  2.9314819007134182e-04  2.8714803429457107e-04  2.7004771828573589e-04  2.4249331781649037e-04  2.0553182637612897e-04  1.6057209269552744e-04  1.0933173529545843e-04  5.3772020302897174e-05  -3.9768434536414154e-06  -6.1697159253837496e-05  -1.1716884068667461e-04  -1.6825489019938716e-04  -2.1298396314219339e-04  -2.4962681812755504e-04  -2.7676367551944260e-04  -2.9333984521163407e-04  -2.9870743104834692e-04  -2.9265145680984104e-04  -2.7539936888856039e-04  -2.4761353222777578e-04  -2.1036702418822021e-04  -1.6510371240653377e-04  -1.1358421254102002e-04  -5.7819689358091277e-05  0.0000000000000000e+00  0.0000000000000000e+00  7.3214931560914041e-05  1.4347858569792169e-04  2.0811994223738424e-04  2.6468162172946301e-04  3.1100870345450373e-04  3.4533136801981606e-04  3.6633351147047615e-04  3.7320432336606019e-04  3.6567069343985454e-04  3.4400912198358127e-04  3.0903660998724236e-04  2.6208080696329484e-04  2.0493048390745730e-04  1.3976815210150638e-04  6.9087338341292575e-05  -4.4023729120360662e-06  -7.7878933999073004e-05  -1.4851611673786396e-04  -2.1359233211720608e-04  -2.7059579177006937e-04  -3.1732193418352125e-04  -3.5195931625090941e-04  -3.7316059881339968e-04  -3.8009581816597339e-04  -3.7248581337527597e-04  -3.5061444570314520e-04  -3.1531907026066555e-04  -2.6795956348535935e-04  -2.1036702418822021e-04  -1.4477397973512414e-04  -7.3728433367401124e-05  0.0000000000000000e+00  0.0000000000000000e+00  8.5953019446608639e-05  1.6849696318290908e-04  2.4448147638702353e-04  3.1100870345450362e-04  3.6553738047788171e-04  4.0597953603643204e-04  4.3078076396301120e-04  4.3898066957887461e-04  4.3025096369274954e-04  4.0490959517260294e-04  3.6391025542396979e-04  3.0880753969983222e-04  2.4169898675050202e-04  1.6514611054795479e-04  8.2077354339684703e-05  -4.3233924952657680e-06  -9.0738498177665201e-05  -1.7384387756789465e-04  -2.5043698783922691e-04  -3.1756059530705055e-04  -3.7261751195395346e-04  -4.1347182183046138e-04  -4.3853261610081191e-04  -4.4681691310034257e-04  -4.3798923156783724e-04  -4.1237618001784714e-04  -3.7095538578591419e-04  -3.1531907026066572e-04  -2.4761353222777589e-04  -1.7045667308411981e-04  -8.6836433050738193e-05  0.0000000000000000e+00  0.0000000000000000e+00  9.5362916991893998e-05  1.8699565590015547e-04  2.7139351043436587e-04  3.4533136801981589e-04  4.0597953603643193e-04  4.5101126173715443e-04  4.7869191989608221e-04  4.8794623834348547e-04  4.7840079562097674e-04  4.5039999371154175e-04  4.0499473709806406e-04  3.4390410153875063e-04  2.6945131700016709e-04  1.8447638327146493e-04  9.2228547948873285e-05  -3.7573296052392548e-06  -9.9795859058111419e-05  -1.9219250410032395e-04  -2.7738585415683814e-04  -3.5208529560153048e-04  -4.1339873768328413e-04  -4.5894539964700016e-04  -4.8694921400674551e-04  -4.9630912680948501e-04  -4.8664345158144274e-04  -4.5830642511894082e-04  -4.1237618001784747e-04  -3.5061444570314547e-04  -2.7539936888856060e-04  -1.8963385991209181e-04  -9.6632790067130160e-05  0.0000000000000000e+00  0.0000000000000000e+00  1.0108617112351335e-04  1.9826870877919536e-04  2.8782661784876892e-04  3.6633351147047610e-04  4.3078076396301093e-04  4.7869191989608200e-04  5.0821759160676351e-04  5.1820708487368026e-04  5.0825385493919318e-04  4.7871288600261384e-04  4.3068915774636035e-04  3.6599746903815029e-04  2.8709499031227825e-04  1.9698897165411385e-04  9.9123003810916907e-05  -2.7539229304049207e-06  -1.0473062519988577e-04  -2.0288375368989468e-04  -2.9342889414471344e-04  -3.7286691286565738e-04  -4.3811986036411187e-04  -4.8665111214513563e-04  -5.1656500139416611e-04  -5.2668196396554604e-04  -5.1658614286491443e-04  -4.8664345158144274e-04  -4.3798923156783745e-04  -3.7248581337527629e-04  -2.9265145680984136e-04  -2.0156325971651330e-04  -1.0273765446864821e-04  0.0000000000000000e+00  0.0000000000000000e+00  1.0290338088594804e-04  2.0188322155323640e-04  2.9314819007134128e-04  3.7320432336605965e-04  4.3898066957887390e-04  4.8794623834348471e-04  5.1820708487367961e-04  5.2857973927772361e-04  5.1863804568970547e-04  4.8873146148592766e-04  4.3997394031645081e-04  3.7420363989213156e-04  2.9391481303846228e-04  2.0216431582621486e-04  1.0245615842904423e-04  -1.3916058552014305e-06  -1.0539264489136082e-04  -2.0554522967929109e-04  -2.9798637997604984e-04  -3.7914132479804479e-04  -4.4586246448545573e-04  -4.9555238418743579e-04  -5.2626604796530713e-04  -5.3678807779707831e-04  -5.2668196396554626e-04  -4.9630912680948523e-04  -4.4681691310034295e-04  -3.8009581816597388e-04  -2.9870743104834724e-04  -2.0578576043574841e-04  -1.0491567561261876e-04  0.0000000000000000e+00  0.0000000000000000e+00  1.0074337113510450e-04  1.9769715422836886e-04  2.8714803429457020e-04  3.6567069343985357e-04  4.3025096369274840e-04  4.7840079562097565e-04  5.0825385493919232e-04  5.1863804568970503e-04  5.0912208047520472e-04  4.8003416755582794e-04  4.3245192254703045e-04  3.6816369772490500e-04  2.8960261239148341e-04  1.9975562131013553e-04  1.0205093401898909e-04  2.2795743969562532e-07  -1.0180535701088030e-04  -2.0012235210276487e-04  -2.9092895442599199e-04  -3.7071057392279921e-04  -4.3636889225524985e-04  -4.8534316357968870e-04  -5.1571121005183950e-04  -5.2626604796530713e-04  -5.1656500139416633e-04  -4.8694921400674589e-04  -4.3853261610081234e-04  -3.7316059881340022e-04  -2.9333984521163451e-04  -2.0214192368540692e-04  -1.0308432060955037e-04  0.0000000000000000e+00  0.0000000000000000e+00  9.4686500041639098e-05  1.8586578973836109e-04  2.7004771828573469e-04  3.4400912198357997e-04  4.0490959517260159e-04  4.5039999371154039e-04  4.7871288600261254e-04  4.8873146148592668e-04  4.8003416755582724e-04  4.5291322477514321e-04  4.0836613410520314e-04  3.4806030190272550e-04  2.7427192993220413e-04  1.8980130926235430e-04  9.7867579995944098e-05  1.9868366627574296e-06  -9.4161861526596979e-05  -1.8687750415131733e-04  -2.7257977303001181e-04  -3.4794780522897246e-04  -4.1004966216430500e-04  -4.5645740155658129e-04  -4.8534316357968913e-04  -4.9555238418743600e-04  -4.8665111214513606e-04  -4.5894539964700054e-04  -4.1347182183046170e-04  -3.5195931625090979e-04  -2.7676367551944308e-04  -1.9077713055963577e-04  -9.7316485156934796e-05  0.0000000000000000e+00  0.0000000000000000e+00  8.4962069999986023e-05  1.6683669501250007e-04  2.4249331781648901e-04  3.0903660998724079e-04  3.6391025542396806e-04  4.0499473709806227e-04  4.3068915774635845e-04  4.3997394031644913e-04  4.3245192254702915e-04  4.0836613410520243e-04  3.6859339714010407e-04  3.1461379082011170e-04  2.4845693371887705e-04  1.7262692992140767e-04  9.0008660641748795e-05  3.7588495607379560e-06  -8.2814043744875977e-05  -1.6637656882430467e-04  -2.4369882407374762e-04  -3.1177982147719403e-04  -3.6796477372880675e-04  -4.1004966216430516e-04  -4.3636889225525023e-04  -4.4586246448545595e-04  -4.3811986036411220e-04  -4.1339873768328445e-04  -3.7261751195395384e-04  -3.1732193418352163e-04  -2.4962681812755542e-04  -1.7213508115530800e-04  -8.7837200510021556e-05  0.0000000000000000e+00  0.0000000000000000e+00  7.1939972668284082e-05  1.4133339743617132e-04  2.0553182637612726e-04  2.6208080696329278e-04  3.0880753969982988e-04  3.4390410153874819e-04  3.6599746903814785e-04  3.7420363989212917e-04  3.6816369772490288e-04  3.4806030190272393e-04  3.1461379082011094e-04  2.6905783901014929e-04  2.1309537812477596e-04  1.4883625030669281e-04  7.8718780199087465e-05  5.4180999249781130e-06  -6.8255387262227118e-05  -1.3946358841331253e-04  -2.0545024149485366e-04  -2.6364813548407714e-04  -3.1177982147719420e-04  -3.4794780522897278e-04  -3.7071057392279970e-04  -3.7914132479804512e-04  -3.7286691286565781e-04  -3.5208529560153086e-04  -3.1756059530705082e-04  -2.7059579177006975e-04  -2.1298396314219372e-04  -1.4693987429939651e-04  -7.5014531940354636e-05  0.0000000000000000e+00  0.0000000000000000e+00  5.6116891995984443e-05  1.1032839348988777e-04  1.6057209269552546e-04  2.0493048390745475e-04  2.4169898675049909e-04  2.6945131700016405e-04  2.8709499031227511e-04  2.9391481303845909e-04  2.8960261239148054e-04  2.7427192993220186e-04  2.4845693371887536e-04  2.1309537812477509e-04  1.6949603619151619e-04  1.1929162538956097e-04  6.4378820663872063e-05  6.8474753575577910e-06  -5.1098371434454223e-05  -1.0722475395726715e-04  -1.5935409683801415e-04  -2.0545024149485385e-04  -2.4369882407374786e-04  -2.7257977303001213e-04  -2.9092895442599243e-04  -2.9798637997605006e-04  -2.9342889414471382e-04  -2.7738585415683841e-04  -2.5043698783922723e-04  -2.1359233211720643e-04  -1.6825489019938752e-04  -1.1616736672763154e-04  -5.9345015649165579e-05  0.0000000000000000e+00  0.0000000000000000e+00  3.8097585773695091e-05  7.5006500356761713e-05  1.0933173529545606e-04  1.3976815210150340e-04  1.6514611054795135e-04  1.8447638327146113e-04  1.9698897165410986e-04  2.0216431582621087e-04  1.9975562131013179e-04  1.8980130926235105e-04  1.7262692992140507e-04  1.4883625030669105e-04  1.1929162538956002e-04  8.5084172625490969e-05  4.7494676998082705e-05  7.9465407009557953e-06  -3.2047558841293879e-05  -7.0943343269235236e-05  -1.0722475395726739e-04  -1.3946358841331280e-04  -1.6637656882430502e-04  -1.8687750415131770e-04  -2.0012235210276527e-04  -2.0554522967929149e-04  -2.0288375368989511e-04  -1.9219250410032436e-04  -1.7384387756789506e-04  -1.4851611673786434e-04  -1.1716884068667498e-04  -8.1006939223100420e-05  -4.1434203620700132e-05  0.0000000000000000e+00  0.0000000000000000e+00  1.8571950819878529e-05  3.6719927074336643e-05  5.3772020302894490e-05  6.9087338341289147e-05  8.2077354339680692e-05  9.2228547948868786e-05  9.9123003810912150e-05  1.0245615842903937e-04  1.0205093401898447e-04  9.7867579995939856e-05  9.0008660641745217e-05  7.8718780199084646e-05  6.4378820663870084e-05  4.7494676998081689e-05  2.8680701278696947e-05  8.6383015229421981e-06  -1.1869628661013933e-05  -3.2047558841294034e-05  -5.1098371434454548e-05  -6.8255387262227497e-05  -8.2814043744876425e-05  -9.4161861526597426e-05  -1.0180535701088078e-04  -1.0539264489136130e-04  -1.0473062519988624e-04  -9.9795859058111826e-05  -9.0738498177665567e-05  -7.7878933999073384e-05  -6.1697159253837808e-05  -4.2815171625836199e-05  -2.1973078690703704e-05  0.0000000000000000e+00  0.0000000000000000e+00  -1.7112611603763238e-06  -3.0632385044910594e-06  -3.9768434536444622e-06  -4.4023729120399295e-06  -4.3233924952703411e-06  -3.7573296052443658e-06  -2.7539229304103942e-06  -1.3916058552070556e-06  2.2795743969012558e-07  1.9868366627522427e-06  3.7588495607333384e-06  5.4180999249742048e-06  6.8474753575547443e-06  7.9465407009536946e-06  8.6383015229411275e-06  8.8743863662671694e-06  8.6383015229420558e-06  7.9465407009555191e-06  6.8474753575573887e-06  5.4180999249776209e-06  3.7588495607374338e-06  1.9868366627569158e-06  2.2795743969509780e-07  -1.3916058552019578e-06  -2.7539229304054242e-06  -3.7573296052397100e-06  -4.3233924952661712e-06  -4.4023729120364228e-06  -3.9768434536417288e-06  -3.0632385044891980e-06  -1.7112611603753821e-06  0.0000000000000000e+00  0.0000000000000000e+00  -2.1973078690704748e-05  -4.2815171625838245e-05  -6.1697159253840843e-05  -7.7878933999077314e-05  -9.0738498177670297e-05  -9.9795859058117166e-05  -1.0473062519989196e-04  -1.0539264489136725e-04  -1.0180535701088676e-04  -9.4161861526603145e-05  -8.2814043744881629e-05  -6.8255387262232078e-05  -5.1098371434458356e-05  -3.2047558841297063e-05  -1.1869628661016086e-05  8.6383015229409648e-06  2.8680701278696649e-05  4.7494676998082292e-05  6.4378820663871521e-05  7.8718780199086842e-05  9.0008660641748104e-05  9.7867579995943502e-05  1.0205093401898852e-04  1.0245615842904366e-04  9.9123003810916338e-05  9.2228547948872784e-05  8.2077354339684283e-05  6.9087338341292182e-05  5.3772020302896855e-05  3.6719927074338276e-05  1.8571950819879362e-05  0.0000000000000000e+00  0.0000000000000000e+00  -4.1434203620701257e-05  -8.1006939223102643e-05  -1.1716884068667827e-04  -1.4851611673786865e-04  -1.7384387756790021e-04  -1.9219250410033026e-04  -2.0288375368990156e-04  -2.0554522967929832e-04  -2.0012235210277221e-04  -1.8687750415132440e-04  -1.6637656882431128e-04  -1.3946358841331849e-04  -1.0722475395727229e-04  -7.0943343269239465e-05  -3.2047558841297233e-05  7.9465407009533694e-06  4.7494676998081221e-05  8.5084172625490373e-05  1.1929162538956027e-04  1.4883625030669205e-04  1.7262692992140699e-04  1.8980130926235376e-04  1.9975562131013501e-04  2.0216431582621429e-04  1.9698897165411331e-04  1.8447638327146441e-04  1.6514611054795436e-04  1.3976815210150594e-04  1.0933173529545807e-04  7.5006500356763095e-05  3.8097585773695803e-05  0.0000000000000000e+00  0.0000000000000000e+00  -5.9345015649166786e-05  -1.1616736672763394e-04  -1.6825489019939107e-04  -2.1359233211721104e-04  -2.5043698783923287e-04  -2.7738585415684486e-04  -2.9342889414472081e-04  -2.9798637997605765e-04  -2.9092895442600012e-04  -2.7257977303001967e-04  -2.4369882407375502e-04  -2.0545024149486049e-04  -1.5935409683802027e-04  -1.0722475395727251e-04  -5.1098371434458688e-05  6.8474753575542598e-06  6.4378820663869488e-05  1.1929162538955932e-04  1.6949603619151541e-04  2.1309537812477512e-04  2.4845693371887629e-04  2.7427192993220365e-04  2.8960261239148292e-04  2.9391481303846180e-04  2.8709499031227782e-04  2.6945131700016655e-04  2.4169898675050150e-04  2.0493048390745681e-04  1.6057209269552708e-04  1.1032839348988890e-04  5.6116891995985019e-05  0.0000000000000000e+00  0.0000000000000000e+00  -7.5014531940355910e-05  -1.4693987429939903e-04  -2.1298396314219748e-04  -2.7059579177007463e-04  -3.1756059530705673e-04  -3.5208529560153753e-04  -3.7286691286566508e-04  -3.7914132479805298e-04  -3.7071057392280783e-04  -3.4794780522898086e-04  -3.1177982147720211e-04  -2.6364813548408479e-04  -2.0545024149486074e-04  -1.3946358841331882e-04  -6.8255387262232512e-05  5.4180999249736550e-06  7.8718780199083942e-05  1.4883625030669018e-04  2.1309537812477423e-04  2.6905783901014842e-04  3.1461379082011099e-04  3.4806030190272507e-04  3.6816369772490467e-04  3.7420363989213118e-04  3.6599746903814980e-04  3.4390410153874998e-04  3.0880753969983156e-04  2.6208080696329419e-04  2.0553182637612848e-04  1.4133339743617219e-04  7.1939972668284529e-05  0.0000000000000000e+00  0.0000000000000000e+00  -8.7837200510022844e-05  -1.7213508115531057e-04  -2.4962681812755921e-04  -3.1732193418352662e-04  -3.7261751195395980e-04  -4.1339873768329128e-04  -4.3811986036411968e-04  -4.4586246448546392e-04  -4.3636889225525852e-04  -4.1004966216431373e-04  -3.6796477372881526e-04  -3.1177982147720233e-04  -2.4369882407375553e-04  -1.6637656882431169e-04  -8.2814043744882117e-05  3.7588495607327573e-06  9.0008660641744512e-05  1.7262692992140439e-04  2.4845693371887466e-04  3.1461379082011034e-04  3.6859339714010353e-04  4.0836613410520265e-04  4.3245192254702996e-04  4.3997394031645043e-04  4.3068915774635959e-04  4.0499473709806330e-04  3.6391025542396903e-04  3.0903660998724154e-04  2.4249331781648980e-04  1.6683669501250069e-04  8.4962069999986362e-05  0.0000000000000000e+00  0.0000000000000000e+00  -9.7316485156936097e-05  -1.9077713055963837e-04  -2.7676367551944688e-04  -3.5195931625091483e-04  -4.1347182183046788e-04  -4.5894539964700764e-04  -4.8665111214514381e-04  -4.9555238418744424e-04  -4.8534316357969754e-04  -4.5645740155659002e-04  -4.1004966216431384e-04  -3.4794780522898108e-04  -2.7257977303001999e-04  -1.8687750415132481e-04  -9.4161861526603633e-05  1.9868366627516956e-06  9.7867579995939287e-05  1.8980130926235050e-04  2.7427192993220132e-04  3.4806030190272355e-04  4.0836613410520184e-04  4.5291322477514266e-04  4.8003416755582718e-04  4.8873146148592722e-04  4.7871288600261303e-04  4.5039999371154082e-04  4.0490959517260208e-04  3.4400912198358040e-04  2.7004771828573518e-04  1.8586578973836141e-04  9.4686500041639342e-05  0.0000000000000000e+00  0.0000000000000000e+00  -1.0308432060955163e-04  -2.0214192368540941e-04  -2.9333984521163819e-04  -3.7316059881340504e-04  -4.3853261610081852e-04  -4.8694921400675289e-04  -5.1656500139417414e-04  -5.2626604796531527e-04  -5.1571121005184817e-04  -4.8534316357969786e-04  -4.3636889225525879e-04  -3.7071057392280810e-04  -2.9092895442600045e-04  -2.0012235210277259e-04  -1.0180535701088721e-04  2.2795743968957131e-07  1.0205093401898398e-04  1.9975562131013138e-04  2.8960261239148021e-04  3.6816369772490234e-04  4.3245192254702845e-04  4.8003416755582653e-04  5.0912208047520385e-04  5.1863804568970449e-04  5.0825385493919210e-04  4.7840079562097549e-04  4.3025096369274835e-04  3.6567069343985346e-04  2.8714803429457010e-04  1.9769715422836889e-04  1.0074337113510467e-04  0.0000000000000000e+00  0.0000000000000000e+00  -1.0491567561261997e-04  -2.0578576043575082e-04  -2.9870743104835093e-04  -3.8009581816597854e-04  -4.4681691310034875e-04  -4.9630912680949206e-04  -5.2668196396555384e-04  -5.3678807779708633e-04  -5.2626604796531559e-04  -4.9555238418744446e-04  -4.4586246448546441e-04  -3.7914132479805346e-04  -2.9798637997605835e-04  -2.0554522967929881e-04  -1.0539264489136776e-04  -1.3916058552076049e-06  1.0245615842903886e-04  2.0216431582621036e-04  2.9391481303845860e-04  3.7420363989212852e-04  4.3997394031644837e-04  4.887314614