<?xml version="1.0"?>
<VTKFile type="UnstructuredGrid"  version="0.1"  >
<UnstructuredGrid>
<Piece  NumberOfPoints="1089" NumberOfCells="2048">
<Points>
<DataArray  type="Float64"  NumberOfComponents="3"  format="ascii">0 0 0  0.03125 0 0  0.0625 0 0  0.09375 0 0  0.125 0 0  0.15625 0 0  0.1875 0 0  0.21875 0 0  0.25 0 0  0.28125 0 0  0.3125 0 0  0.34375 0 0  0.375 0 0  0.40625 0 0  0.4375 0 0  0.46875 0 0  0.5 0 0  0.53125 0 0  0.5625 0 0  0.59375 0 0  0.625 0 0  0.65625 0 0  0.6875 0 0  0.71875 0 0  0.75 0 0  0.78125 0 0  0.8125 0 0  0.84375 0 0  0.875 0 0  0.90625 0 0  0.9375 0 0  0.96875 0 0  1 0 0  0 0.03125 0  0.03125 0.03125 0  0.0625 0.03125 0  0.09375 0.03125 0  0.125 0.03125 0  0.15625 0.03125 0  0.1875 0.03125 0  0.21875 0.03125 0  0.25 0.03125 0  0.28125 0.03125 0  0.3125 0.03125 0  0.34375 0.03125 0  0.375 0.03125 0  0.40625 0.03125 0  0.4375 0.03125 0  0.46875 0.03125 0  0.5 0.03125 0  0.53125 0.03125 0  0.5625 0.03125 0  0.59375 0.03125 0  0.625 0.03125 0  0.65625 0.03125 0  0.6875 0.03125 0  0.71875 0.03125 0  0.75 0.03125 0  0.78125 0.03125 0  0.8125 0.03125 0  0.84375 0.03125 0  0.875 0.03125 0  0.90625 0.03125 0  0.9375 0.03125 0  0.96875 0.03125 0  1 0.03125 0  0 0.0625 0  0.03125 0.0625 0  0.0625 0.0625 0  0.09375 0.0625 0  0.125 0.0625 0  0.15625 0.0625 0  0.1875 0.0625 0  0.21875 0.0625 0  0.25 0.0625 0  0.28125 0.0625 0  0.3125 0.0625 0  0.34375 0.0625 0  0.375 0.0625 0  0.40625 0.0625 0  0.4375 0.0625 0  0.46875 0.0625 0  0.5 0.0625 0  0.53125 0.0625 0  0.5625 0.0625 0  0.59375 0.0625 0  0.625 0.0625 0  0.65625 0.0625 0  0.6875 0.0625 0  0.71875 0.0625 0  0.75 0.0625 0  0.78125 0.0625 0  0.8125 0.0625 0  0.84375 0.0625 0  0.875 0.0625 0  0.90625 0.0625 0  0.9375 0.0625 0  0.96875 0.0625 0  1 0.0625 0  0 0.09375 0  0.03125 0.09375 0  0.0625 0.09375 0  0.09375 0.09375 0  0.125 0.09375 0  0.15625 0.09375 0  0.1875 0.09375 0  0.21875 0.09375 0  0.25 0.09375 0  0.28125 0.09375 0  0.3125 0.09375 0  0.34375 0.09375 0  0.375 0.09375 0  0.40625 0.09375 0  0.4375 0.09375 0  0.46875 0.09375 0  0.5 0.09375 0  0.53125 0.09375 0  0.5625 0.09375 0  0.59375 0.09375 0  0.625 0.09375 0  0.65625 0.09375 0  0.6875 0.09375 0  0.71875 0.09375 0  0.75 0.09375 0  0.78125 0.09375 0  0.8125 0.09375 0  0.84375 0.09375 0  0.875 0.09375 0  0.90625 0.09375 0  0.9375 0.09375 0  0.96875 0.09375 0  1 0.09375 0  0 0.125 0  0.03125 0.125 0  0.0625 0.125 0  0.09375 0.125 0  0.125 0.125 0  0.15625 0.125 0  0.1875 0.125 0  0.21875 0.125 0  0.25 0.125 0  0.28125 0.125 0  0.3125 0.125 0  0.34375 0.125 0  0.375 0.125 0  0.40625 0.125 0  0.4375 0.125 0  0.46875 0.125 0  0.5 0.125 0  0.53125 0.125 0  0.5625 0.125 0  0.59375 0.125 0  0.625 0.125 0  0.65625 0.125 0  0.6875 0.125 0  0.71875 0.125 0  0.75 0.125 0  0.78125 0.125 0  0.8125 0.125 0  0.84375 0.125 0  0.875 0.125 0  0.90625 0.125 0  0.9375 0.125 0  0.96875 0.125 0  1 0.125 0  0 0.15625 0  0.03125 0.15625 0  0.0625 0.15625 0  0.09375 0.15625 0  0.125 0.15625 0  0.15625 0.15625 0  0.1875 0.15625 0  0.21875 0.15625 0  0.25 0.15625 0  0.28125 0.15625 0  0.3125 0.15625 0  0.34375 0.15625 0  0.375 0.15625 0  0.40625 0.15625 0  0.4375 0.15625 0  0.46875 0.15625 0  0.5 0.15625 0  0.53125 0.15625 0  0.5625 0.15625 0  0.59375 0.15625 0  0.625 0.15625 0  0.65625 0.15625 0  0.6875 0.15625 0  0.71875 0.15625 0  0.75 0.15625 0  0.78125 0.15625 0  0.8125 0.15625 0  0.84375 0.15625 0  0.875 0.15625 0  0.90625 0.15625 0  0.9375 0.15625 0  0.96875 0.15625 0  1 0.15625 0  0 0.1875 0  0.03125 0.1875 0  0.0625 0.1875 0  0.09375 0.1875 0  0.125 0.1875 0  0.15625 0.1875 0  0.1875 0.1875 0  0.21875 0.1875 0  0.25 0.1875 0  0.28125 0.1875 0  0.3125 0.1875 0  0.34375 0.1875 0  0.375 0.1875 0  0.40625 0.1875 0  0.4375 0.1875 0  0.46875 0.1875 0  0.5 0.1875 0  0.53125 0.1875 0  0.5625 0.1875 0  0.59375 0.1875 0  0.625 0.1875 0  0.65625 0.1875 0  0.6875 0.1875 0  0.71875 0.1875 0  0.75 0.1875 0  0.78125 0.1875 0  0.8125 0.1875 0  0.84375 0.1875 0  0.875 0.1875 0  0.90625 0.1875 0  0.9375 0.1875 0  0.96875 0.1875 0  1 0.1875 0  0 0.21875 0  0.03125 0.21875 0  0.0625 0.21875 0  0.09375 0.21875 0  0.125 0.21875 0  0.15625 0.21875 0  0.1875 0.21875 0  0.21875 0.21875 0  0.25 0.21875 0  0.28125 0.21875 0  0.3125 0.21875 0  0.34375 0.21875 0  0.375 0.21875 0  0.40625 0.21875 0  0.4375 0.21875 0  0.46875 0.21875 0  0.5 0.21875 0  0.53125 0.21875 0  0.5625 0.21875 0  0.59375 0.21875 0  0.625 0.21875 0  0.65625 0.21875 0  0.6875 0.21875 0  0.71875 0.21875 0  0.75 0.21875 0  0.78125 0.21875 0  0.8125 0.21875 0  0.84375 0.21875 0  0.875 0.21875 0  0.90625 0.21875 0  0.9375 0.21875 0  0.96875 0.21875 0  1 0.21875 0  0 0.25 0  0.03125 0.25 0  0.0625 0.25 0  0.09375 0.25 0  0.125 0.25 0  0.15625 0.25 0  0.1875 0.25 0  0.21875 0.25 0  0.25 0.25 0  0.28125 0.25 0  0.3125 0.25 0  0.34375 0.25 0  0.375 0.25 0  0.40625 0.25 0  0.4375 0.25 0  0.46875 0.25 0  0.5 0.25 0  0.53125 0.25 0  0.5625 0.25 0  0.59375 0.25 0  0.625 0.25 0  0.65625 0.25 0  0.6875 0.25 0  0.71875 0.25 0  0.75 0.25 0  0.78125 0.25 0  0.8125 0.25 0  0.84375 0.25 0  0.875 0.25 0  0.90625 0.25 0  0.9375 0.25 0  0.96875 0.25 0  1 0.25 0  0 0.28125 0  0.03125 0.28125 0  0.0625 0.28125 0  0.09375 0.28125 0  0.125 0.28125 0  0.15625 0.28125 0  0.1875 0.28125 0  0.21875 0.28125 0  0.25 0.28125 0  0.28125 0.28125 0  0.3125 0.28125 0  0.34375 0.28125 0  0.375 0.28125 0  0.40625 0.28125 0  0.4375 0.28125 0  0.46875 0.28125 0  0.5 0.28125 0  0.53125 0.28125 0  0.5625 0.28125 0  0.59375 0.28125 0  0.625 0.28125 0  0.65625 0.28125 0  0.6875 0.28125 0  0.71875 0.28125 0  0.75 0.28125 0  0.78125 0.28125 0  0.8125 0.28125 0  0.84375 0.28125 0  0.875 0.28125 0  0.90625 0.28125 0  0.9375 0.28125 0  0.96875 0.28125 0  1 0.28125 0  0 0.3125 0  0.03125 0.3125 0  0.0625 0.3125 0  0.09375 0.3125 0  0.125 0.3125 0  0.15625 0.3125 0  0.1875 0.3125 0  0.21875 0.3125 0  0.25 0.3125 0  0.28125 0.3125 0  0.3125 0.3125 0  0.34375 0.3125 0  0.375 0.3125 0  0.40625 0.3125 0  0.4375 0.3125 0  0.46875 0.3125 0  0.5 0.3125 0  0.53125 0.3125 0  0.5625 0.3125 0  0.59375 0.3125 0  0.625 0.3125 0  0.65625 0.3125 0  0.6875 0.3125 0  0.71875 0.3125 0  0.75 0.3125 0  0.78125 0.3125 0  0.8125 0.3125 0  0.84375 0.3125 0  0.875 0.3125 0  0.90625 0.3125 0  0.9375 0.3125 0  0.96875 0.3125 0  1 0.3125 0  0 0.34375 0  0.03125 0.34375 0  0.0625 0.34375 0  0.09375 0.34375 0  0.125 0.34375 0  0.15625 0.34375 0  0.1875 0.34375 0  0.21875 0.34375 0  0.25 0.34375 0  0.28125 0.34375 0  0.3125 0.34375 0  0.34375 0.34375 0  0.375 0.34375 0  0.40625 0.34375 0  0.4375 0.34375 0  0.46875 0.34375 0  0.5 0.34375 0  0.53125 0.34375 0  0.5625 0.34375 0  0.59375 0.34375 0  0.625 0.34375 0  0.65625 0.34375 0  0.6875 0.34375 0  0.71875 0.34375 0  0.75 0.34375 0  0.78125 0.34375 0  0.8125 0.34375 0  0.84375 0.34375 0  0.875 0.34375 0  0.90625 0.34375 0  0.9375 0.34375 0  0.96875 0.34375 0  1 0.34375 0  0 0.375 0  0.03125 0.375 0  0.0625 0.375 0  0.09375 0.375 0  0.125 0.375 0  0.15625 0.375 0  0.1875 0.375 0  0.21875 0.375 0  0.25 0.375 0  0.28125 0.375 0  0.3125 0.375 0  0.34375 0.375 0  0.375 0.375 0  0.40625 0.375 0  0.4375 0.375 0  0.46875 0.375 0  0.5 0.375 0  0.53125 0.375 0  0.5625 0.375 0  0.59375 0.375 0  0.625 0.375 0  0.65625 0.375 0  0.6875 0.375 0  0.71875 0.375 0  0.75 0.375 0  0.78125 0.375 0  0.8125 0.375 0  0.84375 0.375 0  0.875 0.375 0  0.90625 0.375 0  0.9375 0.375 0  0.96875 0.375 0  1 0.375 0  0 0.40625 0  0.03125 0.40625 0  0.0625 0.40625 0  0.09375 0.40625 0  0.125 0.40625 0  0.15625 0.40625 0  0.1875 0.40625 0  0.21875 0.40625 0  0.25 0.40625 0  0.28125 0.40625 0  0.3125 0.40625 0  0.34375 0.40625 0  0.375 0.40625 0  0.40625 0.40625 0  0.4375 0.40625 0  0.46875 0.40625 0  0.5 0.40625 0  0.53125 0.40625 0  0.5625 0.40625 0  0.59375 0.40625 0  0.625 0.40625 0  0.65625 0.40625 0  0.6875 0.40625 0  0.71875 0.40625 0  0.75 0.40625 0  0.78125 0.40625 0  0.8125 0.40625 0  0.84375 0.40625 0  0.875 0.40625 0  0.90625 0.40625 0  0.9375 0.40625 0  0.96875 0.40625 0  1 0.40625 0  0 0.4375 0  0.03125 0.4375 0  0.0625 0.4375 0  0.09375 0.4375 0  0.125 0.4375 0  0.15625 0.4375 0  0.1875 0.4375 0  0.21875 0.4375 0  0.25 0.4375 0  0.28125 0.4375 0  0.3125 0.4375 0  0.34375 0.4375 0  0.375 0.4375 0  0.40625 0.4375 0  0.4375 0.4375 0  0.46875 0.4375 0  0.5 0.4375 0  0.53125 0.4375 0  0.5625 0.4375 0  0.59375 0.4375 0  0.625 0.4375 0  0.65625 0.4375 0  0.6875 0.4375 0  0.71875 0.4375 0  0.75 0.4375 0  0.78125 0.4375 0  0.8125 0.4375 0  0.84375 0.4375 0  0.875 0.4375 0  0.90625 0.4375 0  0.9375 0.4375 0  0.96875 0.4375 0  1 0.4375 0  0 0.46875 0  0.03125 0.46875 0  0.0625 0.46875 0  0.09375 0.46875 0  0.125 0.46875 0  0.15625 0.46875 0  0.1875 0.46875 0  0.21875 0.46875 0  0.25 0.46875 0  0.28125 0.46875 0  0.3125 0.46875 0  0.34375 0.46875 0  0.375 0.46875 0  0.40625 0.46875 0  0.4375 0.46875 0  0.46875 0.46875 0  0.5 0.46875 0  0.53125 0.46875 0  0.5625 0.46875 0  0.59375 0.46875 0  0.625 0.46875 0  0.65625 0.46875 0  0.6875 0.46875 0  0.71875 0.46875 0  0.75 0.46875 0  0.78125 0.46875 0  0.8125 0.46875 0  0.84375 0.46875 0  0.875 0.46875 0  0.90625 0.46875 0  0.9375 0.46875 0  0.96875 0.46875 0  1 0.46875 0  0 0.5 0  0.03125 0.5 0  0.0625 0.5 0  0.09375 0.5 0  0.125 0.5 0  0.15625 0.5 0  0.1875 0.5 0  0.21875 0.5 0  0.25 0.5 0  0.28125 0.5 0  0.3125 0.5 0  0.34375 0.5 0  0.375 0.5 0  0.40625 0.5 0  0.4375 0.5 0  0.46875 0.5 0  0.5 0.5 0  0.53125 0.5 0  0.5625 0.5 0  0.59375 0.5 0  0.625 0.5 0  0.65625 0.5 0  0.6875 0.5 0  0.71875 0.5 0  0.75 0.5 0  0.78125 0.5 0  0.8125 0.5 0  0.84375 0.5 0  0.875 0.5 0  0.90625 0.5 0  0.9375 0.5 0  0.96875 0.5 0  1 0.5 0  0 0.53125 0  0.03125 0.53125 0  0.0625 0.53125 0  0.09375 0.53125 0  0.125 0.53125 0  0.15625 0.53125 0  0.1875 0.53125 0  0.21875 0.53125 0  0.25 0.53125 0  0.28125 0.53125 0  0.3125 0.53125 0  0.34375 0.53125 0  0.375 0.53125 0  0.40625 0.53125 0  0.4375 0.53125 0  0.46875 0.53125 0  0.5 0.53125 0  0.53125 0.53125 0  0.5625 0.53125 0  0.59375 0.53125 0  0.625 0.53125 0  0.65625 0.53125 0  0.6875 0.53125 0  0.71875 0.53125 0  0.75 0.53125 0  0.78125 0.531
[...]
<PointData  Scalars="phi"> 
<DataArray  type="Float64"  Name="phi"  format="ascii">0.0000000000000000e+00  0.0000000000000000e+00  0.0000000000000000e+00  0.0000000000000000e+00  0.0000000000000000e+00  0.0000000000000000e+00  0.0000000000000000e+00  0.0000000000000000e+00  0.0000000000000000e+00  0.0000000000000000e+00  0.0000000000000000e+00  0.0000000000000000e+00  0.0000000000000000e+00  0.0000000000000000e+00  0.0000000000000000e+00  0.0000000000000000e+00  0.0000000000000000e+00  0.0000000000000000e+00  0.0000000000000000e+00  0.0000000000000000e+00  0.0000000000000000e+00  0.0000000000000000e+00  0.0000000000000000e+00  0.0000000000000000e+00  0.0000000000000000e+00  0.0000000000000000e+00  0.0000000000000000e+00  0.0000000000000000e+00  0.0000000000000000e+00  0.0000000000000000e+00  0.0000000000000000e+00  0.0000000000000000e+00  0.0000000000000000e+00  0.0000000000000000e+00  -2.5753309559264583e-05  -5.0786889528804061e-05  -7.4545701627346688e-05  -9.6494452513420264e-05  -1.1614776795792055e-04  -1.3309026756341857e-04  -1.4699130754241061e-04  -1.5761558507808535e-04  -1.6482982714361165e-04  -1.6860556755881638e-04  -1.6901803170852643e-04  -1.6624124281347104e-04  -1.6053958327614604e-04  -1.5225616722503338e-04  -1.4179849449532446e-04  -1.2962195473294197e-04  -1.1621182807105541e-04  -1.0206448234143509e-04  -8.7668493717559865e-05  -7.3486416881572253e-05  -5.9937902245414914e-05  -4.7384802532036423e-05  -3.6118831286014968e-05  -2.6352234757122753e-05  -1.8211820070757753e-05  -1.1736551391123611e-05  -6.8787872532041903e-06  -3.5090923502603279e-06  -1.4244226275429586e-06  -3.5936230465956084e-07  -3.9294384955281561e-18  0.0000000000000000e+00  0.0000000000000000e+00  -5.0786889528803939e-05  -1.0021247187998712e-04  -1.4713452047465737e-04  -1.9047768457239401e-04  -2.2927400379611063e-04  -2.6269733879590008e-04  -2.9009098694386930e-04  -3.1098818845684822e-04  -3.2512520900497620e-04  -3.3244677160332536e-04  -3.3310379622904652e-04  -3.2744364337270875e-04  -3.1599331336940983e-04  -2.9943630415355275e-04  -2.7858406010342735e-04  -2.5434314197041684e-04  -2.2767940341449961e-04  -1.9958056665181223e-04  -1.7101864367075864e-04  -1.4291364814093122e-04  -1.1609998651229075e-04  -9.1296807063354516e-05  -6.9083427080400480e-05  -4.9880757132531092e-05  -3.3939405445839820e-05  -2.1334884000580977e-05  -1.1970061655665344e-05  -5.5847297355351639e-06  -1.7718743020870382e-06  -1.5390057739572069e-17  3.5936230464400244e-07  0.0000000000000000e+00  0.0000000000000000e+00  -7.4545701627346228e-05  -1.4713452047465680e-04  -2.1604922032721389e-04  -2.7968506839131947e-04  -3.3660314115095636e-04  -3.8557805075684233e-04  -4.2563741547172959e-04  -4.5609161946434695e-04  -4.7655291507722438e-04  -4.8694331930940887e-04  -4.8749115048713626e-04  -4.7871645516746032e-04  -4.6140597746317135e-04  -4.3657870593840216e-04  -4.0544338012763305e-04  -3.6934963470812226e-04  -3.2973469208659358e-04  -2.8806767416115760e-04  -2.4579368485450976e-04  -2.0427981344913086e-04  -1.6476512481935200e-04  -1.2831653960983344e-04  -9.5792271606201594e-05  -6.7814190173981243e-05  -4.4750124394807501e-05  -2.6706736158959283e-05  -1.3533177309854469e-05  -4.8353273471423959e-06  -3.3298523829384152e-17  1.7718743020417533e-06  1.4244226275200578e-06  0.0000000000000000e+00  0.0000000000000000e+00  -9.6494452513419071e-05  -1.9047768457239217e-04  -2.7968506839131789e-04  -3.6200573902509057e-04  -4.3555080145981094e-04  -4.9871449474726132e-04  -5.5022508883519235e-04  -5.8918343571859365e-04  -6.1508774698552492e-04  -6.2784375722994249e-04  -6.2776000292037596e-04  -6.1552850925006698e-04  -5.9219172418694603e-04  -5.5909705263696113e-04  -5.1784080573167354e-04  -4.7020377311537596e-04  -4.1808093450946171e-04  -3.6340803878324518e-04  -3.0808788603626667e-04  -2.5391914665823354e-04  -2.0253044107483792e-04  -1.5532218922681580e-04  -1.1341842812883764e-04  -7.7630401199066374e-05  -4.8433259781100401e-05  -2.5956703406295979e-05  -9.9898408435388854e-06  -5.5915582709647056e-17  4.8353273470560764e-06  5.5847297354764434e-06  3.5090923502306212e-06  0.0000000000000000e+00  0.0000000000000000e+00  -1.1614776795791824e-04  -2.2927400379610678e-04  -3.3660314115095203e-04  -4.3555080145980769e-04  -5.2380734508371382e-04  -5.9941241191987420e-04  -6.6081689275594778e-04  -7.0692986740713464e-04  -7.3714873138338351e-04  -7.5137143469783244e-04  -7.4999046493571208e-04  -7.3386891057647006e-04  -7.0429962235438735e-04  -6.6294912886886992e-04  -6.1178853548150380e-04  -5.5301412177021425e-04  -4.8896073421226052e-04  -4.2201133289085325e-04  -3.5450618391830543e-04  -2.8865518794183692e-04  -2.2645669970999257e-04  -1.6962592955728728e-04  -1.1953563510290923e-04  -7.7171325310459679e-05  -4.3102628160784139e-05  -1.7471839639700164e-05  -8.1010805809567123e-17  9.9898408434042343e-06  1.3533177309750477e-05  1.1970061655594573e-05  6.8787872531683744e-06  0.0000000000000000e+00  0.0000000000000000e+00  -1.3309026756341472e-04  -2.6269733879589314e-04  -3.8557805075683377e-04  -4.9871449474725297e-04  -5.9941241191986845e-04  -6.8538863694779474e-04  -7.5484364587047608e-04  -8.0651642346542827e-04  -8.3971959047899995e-04  -8.5435352269248377e-04  -8.5089901775365088e-04  -8.3038889408654356e-04  -7.9435971161891756e-04  -7.4478555882967717e-04  -6.8399652772479255e-04  -6.1458507294314692e-04  -5.3930390185791429e-04  -4.6095935235311082e-04  -3.8230437227613844e-04  -3.0593521355076590e-04  -2.3419579479560854e-04  -1.6909337531314774e-04  -1.1222873260823143e-04  -6.4743462642666120e-05  -2.7286348999511828e-05  -1.0606545908434728e-16  1.7471839639514691e-05  2.5956703406141710e-05  2.6706736158840062e-05  2.1334884000499798e-05  1.1736551391082516e-05  0.0000000000000000e+00  0.0000000000000000e+00  -1.4699130754240464e-04  -2.9009098694385825e-04  -4.2563741547171522e-04  -5.5022508883517695e-04  -6.6081689275593390e-04  -7.5484364587046729e-04  -8.3028653748800133e-04  -8.8573936559141670e-04  -9.2044826595138411e-04  -9.3432750062517986e-04  -9.2795080160859046e-04  -9.0251870578900140e-04  -8.5980323538830858e-04  -8.0207213993339140e-04  -7.3199568956219016e-04  -6.5253966632999470e-04  -5.6684871550227831e-04  -4.7812457323520715e-04  -3.8950386724801421e-04  -3.0394018640665990e-04  -2.2409493380515331e-04  -1.5224112311164228e-04  -9.0183763456759767e-05  -3.9199823919714961e-05  -1.2847976880171120e-16  2.7286348999278186e-05  4.3102628160579604e-05  4.8433259780930114e-05  4.4750124394675811e-05  3.3939405445750095e-05  1.8211820070712312e-05  0.0000000000000000e+00  0.0000000000000000e+00  -1.5761558507807675e-04  -3.1098818845683201e-04  -4.5609161946432499e-04  -5.8918343571856850e-04  -7.0692986740710948e-04  -8.0651642346540701e-04  -8.8573936559140391e-04  -9.4307465178903953e-04  -9.7772180945662236e-04  -9.8962116065424597e-04  -9.7944384571435270e-04  -9.4855513367539672e-04  -8.9895252837027305e-04  -8.3318113841503790e-04  -7.5422964147701054e-04  -6.6541090546016232e-04  -5.7023190394688288e-04  -4.7225795866344552e-04  -3.7497654299730235e-04  -2.8166588020811555e-04  -1.9527336818051595e-04  -1.1830846732449584e-04  -5.2754114916988960e-05  -1.4582015738620114e-16  3.9199823919440915e-05  6.4743462642416510e-05  7.7171325310240860e-05  7.7630401198883984e-05  6.7814190173840080e-05  4.9880757132434856e-05  2.6352234757073994e-05  0.0000000000000000e+00  0.0000000000000000e+00  -1.6482982714359986e-04  -3.2512520900495386e-04  -4.7655291507719342e-04  -6.1508774698548828e-04  -7.3714873138334470e-04  -8.3971959047896385e-04  -9.2044826595135505e-04  -9.7772180945660588e-04  -1.0107138861849617e-03  -1.0194031827546420e-03  -1.0045621231108976e-03  -9.6771643092703947e-04  -9.1107718956263267e-04  -8.3744809784515361e-04  -7.5011156163471457e-04  -6.5269806135278803e-04  -5.4904386393081288e-04  -4.4304258009067790e-04  -3.3849628813889814e-04  -2.3897194530620542e-04  -1.4766858731481109e-04  -6.7300384976286428e-05  -1.5602216503575502e-16  5.2754114916686813e-05  9.0183763456475123e-05  1.1222873260797163e-04  1.1953563510268107e-04  1.1341842812864723e-04  9.5792271606054074e-05  6.9083427080299825e-05  3.6118831285963943e-05  0.0000000000000000e+00  0.0000000000000000e+00  -1.6860556755880104e-04  -3.3244677160329593e-04  -4.8694331930936756e-04  -6.2784375722989261e-04  -7.5137143469777802e-04  -8.5435352269242946e-04  -9.3432750062513096e-04  -9.8962116065420781e-04  -1.0194031827546204e-03  -1.0237024544875867e-03  -1.0033955022049794e-03  -9.6016261786560739e-04  -8.9641445997058050e-04  -8.1519203196455878e-04  -7.2004395342177541e-04  -6.1488579958899941e-04  -5.0384696046585427e-04  -3.9111093577710149e-04  -2.8075521924452666e-04  -1.7659692558067379e-04  -8.2050076793593906e-05  -1.5759664534237313e-16  6.7300384975972117e-05  1.1830846732419031e-04  1.5224112311135356e-04  1.6909337531288352e-04  1.6962592955705477e-04  1.5532218922662146e-04  1.2831653960968268e-04  9.1296807063251585e-05  4.7384802531984212e-05  0.0000000000000000e+00  0.0000000000000000e+00  -1.6901803170850710e-04  -3.3310379622900922e-04  -4.8749115048708341e-04  -6.2776000292031112e-04  -7.4999046493563943e-04  -8.5089901775357597e-04  -9.2795080160851858e-04  -9.7944384571428959e-04  -1.0045621231108504e-03  -1.0033955022049532e-03  -9.7692593001373162e-04  -9.2698047136094061e-04  -8.5615309330909495e-04  -7.6769827587701311e-04  -6.6540060256869591e-04  -5.5342539614513966e-04  -4.3615618139594161e-04  -3.1802524997887846e-04  -2.0334385386462262e-04  -9.6138554035709149e-05  -1.4972859902976927e-16  8.2050076793285573e-05  1.4766858731450188e-04  1.9527336818021395e-04  2.2409493380486681e-04  2.3419579479534556e-04  2.2645669970976061e-04  2.0253044107464363e-04  1.6476512481920113e-04  1.1609998651218763e-04  5.9937902245362561e-05  0.0000000000000000e+00  0.0000000000000000e+00  -1.6624124281344743e-04  -3.2744364337266294e-04  -4.7871645516739489e-04  -6.1552850924998588e-04  -7.3386891057637790e-04  -8.3038889408644577e-04  -9.0251870578890437e-04  -9.4855513367530652e-04  -9.6771643092696314e-04  -9.6016261786555134e-04  -9.2698047136091015e-04  -8.7013385966781679e-04  -7.9238140461149794e-04  -6.9716470045263113e-04  -5.8847144147783663e-04  -4.7067876512539152e-04  -3.4838286755168105e-04  -2.2622146518143623e-04  -1.0869593918769317e-04  -1.3241628786466882e-16  9.6138554035425888e-05  1.7659692558037946e-04  2.3897194530590814e-04  2.8166588020782352e-04  3.0394018640638164e-04  3.0593521355050954e-04  2.8865518794161016e-04  2.5391914665804315e-04  2.0427981344898273e-04  1.4291364814082990e-04  7.3486416881520767e-05  0.0000000000000000e+00  0.0000000000000000e+00  -1.6053958327611790e-04  -3.1599331336935519e-04  -4.6140597746309280e-04  -5.9219172418684780e-04  -7.0429962235427426e-04  -7.9435971161879548e-04  -8.5980323538818433e-04  -8.9895252837015314e-04  -9.1107718956252479e-04  -8.9641445997049127e-04  -8.5615309330903033e-04  -7.9238140461146346e-04  -7.0800155206804502e-04  -6.0661339864472995e-04  -4.9237246226824813e-04  -3.6982745182209263e-04  -2.4374366283352032e-04  -1.1891904169182858e-04  -1.0631373647832624e-16  1.0869593918745336e-04  2.0334385386436206e-04  2.8075521924425263e-04  3.3849628813861885e-04  3.7497654299702599e-04  3.8950386724774945e-04  3.8230437227589352e-04  3.5450618391808799e-04  3.0808788603608366e-04  2.4579368485436707e-04  1.7101864367066087e-04  8.7668493717510182e-05  0.0000000000000000e+00  0.0000000000000000e+00  -1.5225616722500072e-04  -2.9943630415348900e-04  -4.3657870593831011e-04  -5.5909705263684512e-04  -6.6294912886873537e-04  -7.4478555882953037e-04  -8.0207213993323907e-04  -8.3318113841488741e-04  -8.3744809784501266e-04  -8.1519203196443464e-04  -7.6769827587691228e-04  -6.9716470045255935e-04  -6.0661339864469222e-04  -4.9977127517424969e-04  -3.8092416169355794e-04  -2.5475009222471640e-04  -1.2613816938040760e-04  -7.3033295579415412e-17  1.1891904169164837e-04  2.2622146518122685e-04  3.1802524997864617e-04  3.9111093577685343e-04  4.4304258009042203e-04  4.7225795866319008e-04  4.7812457323496082e-04  4.6095935235288151e-04  4.2201133289064888e-04  3.6340803878307263e-04  2.8806767416102283e-04  1.9958056665171972e-04  1.0206448234138801e-04  0.0000000000000000e+00  0.0000000000000000e+00  -1.4179849449528733e-04  -2.7858406010335465e-04  -4.0544338012752778e-04  -5.1784080573154018e-04  -6.1178853548134811e-04  -6.8399652772462103e-04  -7.3199568956200953e-04  -7.5422964147682904e-04  -7.5011156163453979e-04  -7.2004395342161560e-04  -6.6540060256855779e-04  -5.8847144147772625e-04  -4.9237246226817093e-04  -3.8092416169351799e-04  -2.5850320878320968e-04  -1.2987305326723502e-04  -3.4621378221109113e-17  1.2613816938029937e-04  2.4374366283337647e-04  3.4838286755150622e-04  4.3615618139574179e-04  5.0384696046563635e-04  5.4904386393058477e-04  5.7023190394665259e-04  5.6684871550205409e-04  5.3930390185770417e-04  4.8896073421207231e-04  4.1808093450930223e-04  3.2973469208646852e-04  2.2767940341441364e-04  1.1621182807101162e-04  0.0000000000000000e+00  0.0000000000000000e+00  -1.2962195473290060e-04  -2.5434314197033574e-04  -3.6934963470800462e-04  -4.7020377311522623e-04  -5.5301412177003817e-04  -6.1458507294295155e-04  -6.5253966632978729e-04  -6.6541090545995068e-04  -6.5269806135258073e-04  -6.1488579958880437e-04  -5.5342539614496435e-04  -4.7067876512524233e-04  -3.6982745182197543e-04  -2.5475009222463568e-04  -1.2987305326719385e-04  6.4077737123730890e-18  1.2987305326720664e-04  2.5475009222464826e-04  3.6982745182198768e-04  4.7067876512525399e-04  5.5342539614497530e-04  6.1488579958881488e-04  6.5269806135259071e-04  6.6541090545996001e-04  6.5253966632979553e-04  6.1458507294295881e-04  5.5301412177004435e-04  4.7020377311523143e-04  3.6934963470800863e-04  2.5434314197033845e-04  1.2962195473290201e-04  0.0000000000000000e+00  0.0000000000000000e+00  -1.1621182807101024e-04  -2.2767940341441098e-04  -3.2973469208646462e-04  -4.1808093450929713e-04  -4.8896073421206602e-04  -5.3930390185769701e-04  -5.6684871550204596e-04  -5.7023190394664338e-04  -5.4904386393057479e-04  -5.0384696046562572e-04  -4.3615618139573057e-04  -3.4838286755149435e-04  -2.4374366283336411e-04  -1.2613816938028679e-04  4.7380747545100762e-17  1.2987305326724784e-04  2.5850320878322225e-04  3.8092416169353030e-04  4.9237246226818275e-04  5.8847144147773742e-04  6.6540060256856819e-04  7.2004395342162601e-04  7.5011156163454999e-04  7.5422964147683837e-04  7.3199568956201777e-04  6.8399652772462819e-04  6.1178853548135440e-04  5.1784080573154538e-04  4.0544338012753179e-04  2.7858406010335742e-04  1.4179849449528874e-04  0.0000000000000000e+00  0.0000000000000000e+00  -1.0206448234138666e-04  -1.9958056665171707e-04  -2.8806767416101903e-04  -3.6340803878306765e-04  -4.2201133289064281e-04  -4.6095935235287446e-04  -4.7812457323495274e-04  -4.7225795866318119e-04  -4.4304258009041238e-04  -3.9111093577684296e-04  -3.1802524997863501e-04  -2.2622146518121514e-04  -1.1891904169163616e-04  8.5486526278846789e-17  1.2613816938042020e-04  2.5475009222472903e-04  3.8092416169357025e-04  4.9977127517426161e-04  6.0661339864470371e-04  6.9716470045257019e-04  7.6769827587692280e-04  8.1519203196444494e-04  8.3744809784502263e-04  8.3318113841489663e-04  8.0207213993324731e-04  7.4478555882953764e-04  6.6294912886874166e-04  5.5909705263685022e-04  4.3657870593831406e-04  2.9943630415349160e-04  1.5225616722500208e-04  0.0000000000000000e+00  0.0000000000000000e+00  -8.7668493717508881e-05  -1.7101864367065833e-04  -2.4579368485436339e-04  -3.0808788603607878e-04  -3.5450618391808203e-04  -3.8230437227588653e-04  -3.8950386724774158e-04  -3.7497654299701731e-04  -3.3849628813860931e-04  -2.8075521924424238e-04  -2.0334385386435117e-04  -1.0869593918744192e-04  1.1823332785514894e-16  1.1891904169184078e-04  2.4374366283353265e-04  3.6982745182210488e-04  4.9237246226826006e-04  6.0661339864474144e-04  7.0800155206805608e-04  7.9238140461147409e-04  8.5615309330904074e-04  8.9641445997050147e-04  9.1107718956253466e-04  8.9895252837016236e-04  8.5980323538819257e-04  7.9435971161880264e-04  7.0429962235428012e-04  5.9219172418685257e-04  4.6140597746309654e-04  3.1599331336935768e-04  1.6053958327611921e-04  0.0000000000000000e+00  0.0000000000000000e+00  -7.3486416881519533e-05  -1.4291364814082746e-04  -2.0427981344897916e-04  -2.5391914665803849e-04  -2.8865518794160441e-04  -3.0593521355050277e-04  -3.0394018640637400e-04  -2.8166588020781501e-04  -2.3897194530589878e-04  -1.7659692558036946e-04  -9.6138554035415263e-05  1.4351585829311237e-16  1.0869593918770470e-04  2.2622146518144800e-04  3.4838286755169286e-04  4.7067876512540323e-04  5.8847144147784790e-04  6.9716470045264208e-04  7.9238140461150867e-04  8.7013385966782709e-04  9.2698047136092034e-04  9.6016261786556131e-04  9.6771643092697312e-04  9.4855513367531573e-04  9.0251870578891228e-04  8.3038889408645271e-04  7.3386891057638354e-04  6.1552850924999044e-04  4.7871645516739836e-04  3.2744364337266533e-04  1.6624124281344865e-04  0.0000000000000000e+00  0.0000000000000000e+00  -5.9937902245361396e-05  -1.1609998651218530e-04  -1.6476512481919766e-04  -2.0253044107463913e-04  -2.2645669970975508e-04  -2.3419579479533908e-04  -2.2409493380485943e-04  -1.9527336818020571e-04  -1.4766858731449288e-04  -8.2050076793275950e-05  1.5994951468250449e-16  9.6138554035719815e-05  2.0334385386463371e-04  3.1802524997888974e-04  4.3615618139595294e-04  5.5342539614515094e-04  6.6540060256870676e-04  7.6769827587702395e-04  8.5615309330910557e-04  9.2698047136095113e-04  9.7692593001374181e-04  1.0033955022049632e-03  1.0045621231108599e-03  9.7944384571429892e-04  9.2795080160852650e-04  8.5089901775358247e-04  7.4999046493564496e-04  6.2776000292031535e-04  4.8749115048708666e-04  3.3310379622901139e-04  1.6901803170850827e-04  0.0000000000000000e+00  0.0000000000000000e+00  -4.7384802531983101e-05  -9.1296807063249389e-05  -1.2831653960967943e-04  -1.5532218922661718e-04  -1.6962592955704951e-04  -1.6909337531287736e-04  -1.5224112311134654e-04  -1.1830846732418249e-04  -6.7300384975963579e-05  1.6675834580208707e-16  8.2050076793603610e-05  1.7659692558068388e-04  2.8075521924453696e-04  3.9111093577711206e-04  5.0384696046586500e-04  6.1488579958901015e-04  7.2004395342178582e-04  8.1519203196456919e-04  8.9641445997059080e-04  9.6016261786561758e-04  1.0033955022049892e-03  1.0237024544875960e-03  1.0194031827546292e-03  9.8962116065421648e-04  9.3432750062513812e-04  8.5435352269243564e-04  7.5137143469778322e-04  6.2784375722989662e-04  4.8694331930937049e-04  3.3244677160329793e-04  1.6860556755880210e-04  0.0000000000000000e+00  0.0000000000000000e+00  -3.6118831285962899e-05  -6.9083427080297765e-05  -9.5792271606051025e-05  -1.1341842812864323e-04  -1.1953563510267619e-04  -1.1222873260796588e-04  -9.0183763456468563e-05  -5.2754114916679501e-05  1.6401451869829946e-16  6.7300384976295047e-05  1.4766858731482025e-04  2.3897194530621496e-04  3.3849628813890779e-04  4.4304258009068777e-04  5.4904386393082297e-04  6.5269806135279801e-04  7.5011156163472411e-04  8.3744809784516358e-04  9.1107718956264265e-04  9.6771643092704890e-04  1.0045621231109067e-03  1.0194031827546507e-03  1.0107138861849699e-03  9.7772180945661282e-04  9.2044826595136155e-04  8.3971959047896938e-04  7.3714873138334925e-04  6.1508774698549175e-04  4.7655291507719602e-04  3.2512520900495571e-04  1.6482982714360084e-04  0.0000000000000000e+00  0.0000000000000000e+00  -2.6352234757073045e-05  -4.9880757132432965e-05  -6.7814190173837288e-05  -7.7630401198880325e-05  -7.7171325310236360e-05  -6.4743462642411197e-05  -3.9199823919434877e-05  1.5255114627016992e-16  5.2754114916996319e-05  1.1830846732450374e-04  1.9527336818052433e-04  2.8166588020812433e-04  3.7497654299731140e-04  4.7225795866345462e-04  5.7023190394689209e-04  6.6541090546017121e-04  7.5422964147701943e-04  8.3318113841504690