<?xml version="1.0"?>
<VTKFile type="UnstructuredGrid"  version="0.1"  >
<UnstructuredGrid>
<Piece  NumberOfPoints="1089" NumberOfCells="2048">
<Points>
<DataArray  type="Float64"  NumberOfComponents="3"  format="ascii">0 0 0  0.03125 0 0  0.0625 0 0  0.09375 0 0  0.125 0 0  0.15625 0 0  0.1875 0 0  0.21875 0 0  0.25 0 0  0.28125 0 0  0.3125 0 0  0.34375 0 0  0.375 0 0  0.40625 0 0  0.4375 0 0  0.46875 0 0  0.5 0 0  0.53125 0 0  0.5625 0 0  0.59375 0 0  0.625 0 0  0.65625 0 0  0.6875 0 0  0.71875 0 0  0.75 0 0  0.78125 0 0  0.8125 0 0  0.84375 0 0  0.875 0 0  0.90625 0 0  0.9375 0 0  0.96875 0 0  1 0 0  0 0.03125 0  0.03125 0.03125 0  0.0625 0.03125 0  0.09375 0.03125 0  0.125 0.03125 0  0.15625 0.03125 0  0.1875 0.03125 0  0.21875 0.03125 0  0.25 0.03125 0  0.28125 0.03125 0  0.3125 0.03125 0  0.34375 0.03125 0  0.375 0.03125 0  0.40625 0.03125 0  0.4375 0.03125 0  0.46875 0.03125 0  0.5 0.03125 0  0.53125 0.03125 0  0.5625 0.03125 0  0.59375 0.03125 0  0.625 0.03125 0  0.65625 0.03125 0  0.6875 0.03125 0  0.71875 0.03125 0  0.75 0.03125 0  0.78125 0.03125 0  0.8125 0.03125 0  0.84375 0.03125 0  0.875 0.03125 0  0.90625 0.03125 0  0.9375 0.03125 0  0.96875 0.03125 0  1 0.03125 0  0 0.0625 0  0.03125 0.0625 0  0.0625 0.0625 0  0.09375 0.0625 0  0.125 0.0625 0  0.15625 0.0625 0  0.1875 0.0625 0  0.21875 0.0625 0  0.25 0.0625 0  0.28125 0.0625 0  0.3125 0.0625 0  0.34375 0.0625 0  0.375 0.0625 0  0.40625 0.0625 0  0.4375 0.0625 0  0.46875 0.0625 0  0.5 0.0625 0  0.53125 0.0625 0  0.5625 0.0625 0  0.59375 0.0625 0  0.625 0.0625 0  0.65625 0.0625 0  0.6875 0.0625 0  0.71875 0.0625 0  0.75 0.0625 0  0.78125 0.0625 0  0.8125 0.0625 0  0.84375 0.0625 0  0.875 0.0625 0  0.90625 0.0625 0  0.9375 0.0625 0  0.96875 0.0625 0  1 0.0625 0  0 0.09375 0  0.03125 0.09375 0  0.0625 0.09375 0  0.09375 0.09375 0  0.125 0.09375 0  0.15625 0.09375 0  0.1875 0.09375 0  0.21875 0.09375 0  0.25 0.09375 0  0.28125 0.09375 0  0.3125 0.09375 0  0.34375 0.09375 0  0.375 0.09375 0  0.40625 0.09375 0  0.4375 0.09375 0  0.46875 0.09375 0  0.5 0.09375 0  0.53125 0.09375 0  0.5625 0.09375 0  0.59375 0.09375 0  0.625 0.09375 0  0.65625 0.09375 0  0.6875 0.09375 0  0.71875 0.09375 0  0.75 0.09375 0  0.78125 0.09375 0  0.8125 0.09375 0  0.84375 0.09375 0  0.875 0.09375 0  0.90625 0.09375 0  0.9375 0.09375 0  0.96875 0.09375 0  1 0.09375 0  0 0.125 0  0.03125 0.125 0  0.0625 0.125 0  0.09375 0.125 0  0.125 0.125 0  0.15625 0.125 0  0.1875 0.125 0  0.21875 0.125 0  0.25 0.125 0  0.28125 0.125 0  0.3125 0.125 0  0.34375 0.125 0  0.375 0.125 0  0.40625 0.125 0  0.4375 0.125 0  0.46875 0.125 0  0.5 0.125 0  0.53125 0.125 0  0.5625 0.125 0  0.59375 0.125 0  0.625 0.125 0  0.65625 0.125 0  0.6875 0.125 0  0.71875 0.125 0  0.75 0.125 0  0.78125 0.125 0  0.8125 0.125 0  0.84375 0.125 0  0.875 0.125 0  0.90625 0.125 0  0.9375 0.125 0  0.96875 0.125 0  1 0.125 0  0 0.15625 0  0.03125 0.15625 0  0.0625 0.15625 0  0.09375 0.15625 0  0.125 0.15625 0  0.15625 0.15625 0  0.1875 0.15625 0  0.21875 0.15625 0  0.25 0.15625 0  0.28125 0.15625 0  0.3125 0.15625 0  0.34375 0.15625 0  0.375 0.15625 0  0.40625 0.15625 0  0.4375 0.15625 0  0.46875 0.15625 0  0.5 0.15625 0  0.53125 0.15625 0  0.5625 0.15625 0  0.59375 0.15625 0  0.625 0.15625 0  0.65625 0.15625 0  0.6875 0.15625 0  0.71875 0.15625 0  0.75 0.15625 0  0.78125 0.15625 0  0.8125 0.15625 0  0.84375 0.15625 0  0.875 0.15625 0  0.90625 0.15625 0  0.9375 0.15625 0  0.96875 0.15625 0  1 0.15625 0  0 0.1875 0  0.03125 0.1875 0  0.0625 0.1875 0  0.09375 0.1875 0  0.125 0.1875 0  0.15625 0.1875 0  0.1875 0.1875 0  0.21875 0.1875 0  0.25 0.1875 0  0.28125 0.1875 0  0.3125 0.1875 0  0.34375 0.1875 0  0.375 0.1875 0  0.40625 0.1875 0  0.4375 0.1875 0  0.46875 0.1875 0  0.5 0.1875 0  0.53125 0.1875 0  0.5625 0.1875 0  0.59375 0.1875 0  0.625 0.1875 0  0.65625 0.1875 0  0.6875 0.1875 0  0.71875 0.1875 0  0.75 0.1875 0  0.78125 0.1875 0  0.8125 0.1875 0  0.84375 0.1875 0  0.875 0.1875 0  0.90625 0.1875 0  0.9375 0.1875 0  0.96875 0.1875 0  1 0.1875 0  0 0.21875 0  0.03125 0.21875 0  0.0625 0.21875 0  0.09375 0.21875 0  0.125 0.21875 0  0.15625 0.21875 0  0.1875 0.21875 0  0.21875 0.21875 0  0.25 0.21875 0  0.28125 0.21875 0  0.3125 0.21875 0  0.34375 0.21875 0  0.375 0.21875 0  0.40625 0.21875 0  0.4375 0.21875 0  0.46875 0.21875 0  0.5 0.21875 0  0.53125 0.21875 0  0.5625 0.21875 0  0.59375 0.21875 0  0.625 0.21875 0  0.65625 0.21875 0  0.6875 0.21875 0  0.71875 0.21875 0  0.75 0.21875 0  0.78125 0.21875 0  0.8125 0.21875 0  0.84375 0.21875 0  0.875 0.21875 0  0.90625 0.21875 0  0.9375 0.21875 0  0.96875 0.21875 0  1 0.21875 0  0 0.25 0  0.03125 0.25 0  0.0625 0.25 0  0.09375 0.25 0  0.125 0.25 0  0.15625 0.25 0  0.1875 0.25 0  0.21875 0.25 0  0.25 0.25 0  0.28125 0.25 0  0.3125 0.25 0  0.34375 0.25 0  0.375 0.25 0  0.40625 0.25 0  0.4375 0.25 0  0.46875 0.25 0  0.5 0.25 0  0.53125 0.25 0  0.5625 0.25 0  0.59375 0.25 0  0.625 0.25 0  0.65625 0.25 0  0.6875 0.25 0  0.71875 0.25 0  0.75 0.25 0  0.78125 0.25 0  0.8125 0.25 0  0.84375 0.25 0  0.875 0.25 0  0.90625 0.25 0  0.9375 0.25 0  0.96875 0.25 0  1 0.25 0  0 0.28125 0  0.03125 0.28125 0  0.0625 0.28125 0  0.09375 0.28125 0  0.125 0.28125 0  0.15625 0.28125 0  0.1875 0.28125 0  0.21875 0.28125 0  0.25 0.28125 0  0.28125 0.28125 0  0.3125 0.28125 0  0.34375 0.28125 0  0.375 0.28125 0  0.40625 0.28125 0  0.4375 0.28125 0  0.46875 0.28125 0  0.5 0.28125 0  0.53125 0.28125 0  0.5625 0.28125 0  0.59375 0.28125 0  0.625 0.28125 0  0.65625 0.28125 0  0.6875 0.28125 0  0.71875 0.28125 0  0.75 0.28125 0  0.78125 0.28125 0  0.8125 0.28125 0  0.84375 0.28125 0  0.875 0.28125 0  0.90625 0.28125 0  0.9375 0.28125 0  0.96875 0.28125 0  1 0.28125 0  0 0.3125 0  0.03125 0.3125 0  0.0625 0.3125 0  0.09375 0.3125 0  0.125 0.3125 0  0.15625 0.3125 0  0.1875 0.3125 0  0.21875 0.3125 0  0.25 0.3125 0  0.28125 0.3125 0  0.3125 0.3125 0  0.34375 0.3125 0  0.375 0.3125 0  0.40625 0.3125 0  0.4375 0.3125 0  0.46875 0.3125 0  0.5 0.3125 0  0.53125 0.3125 0  0.5625 0.3125 0  0.59375 0.3125 0  0.625 0.3125 0  0.65625 0.3125 0  0.6875 0.3125 0  0.71875 0.3125 0  0.75 0.3125 0  0.78125 0.3125 0  0.8125 0.3125 0  0.84375 0.3125 0  0.875 0.3125 0  0.90625 0.3125 0  0.9375 0.3125 0  0.96875 0.3125 0  1 0.3125 0  0 0.34375 0  0.03125 0.34375 0  0.0625 0.34375 0  0.09375 0.34375 0  0.125 0.34375 0  0.15625 0.34375 0  0.1875 0.34375 0  0.21875 0.34375 0  0.25 0.34375 0  0.28125 0.34375 0  0.3125 0.34375 0  0.34375 0.34375 0  0.375 0.34375 0  0.40625 0.34375 0  0.4375 0.34375 0  0.46875 0.34375 0  0.5 0.34375 0  0.53125 0.34375 0  0.5625 0.34375 0  0.59375 0.34375 0  0.625 0.34375 0  0.65625 0.34375 0  0.6875 0.34375 0  0.71875 0.34375 0  0.75 0.34375 0  0.78125 0.34375 0  0.8125 0.34375 0  0.84375 0.34375 0  0.875 0.34375 0  0.90625 0.34375 0  0.9375 0.34375 0  0.96875 0.34375 0  1 0.34375 0  0 0.375 0  0.03125 0.375 0  0.0625 0.375 0  0.09375 0.375 0  0.125 0.375 0  0.15625 0.375 0  0.1875 0.375 0  0.21875 0.375 0  0.25 0.375 0  0.28125 0.375 0  0.3125 0.375 0  0.34375 0.375 0  0.375 0.375 0  0.40625 0.375 0  0.4375 0.375 0  0.46875 0.375 0  0.5 0.375 0  0.53125 0.375 0  0.5625 0.375 0  0.59375 0.375 0  0.625 0.375 0  0.65625 0.375 0  0.6875 0.375 0  0.71875 0.375 0  0.75 0.375 0  0.78125 0.375 0  0.8125 0.375 0  0.84375 0.375 0  0.875 0.375 0  0.90625 0.375 0  0.9375 0.375 0  0.96875 0.375 0  1 0.375 0  0 0.40625 0  0.03125 0.40625 0  0.0625 0.40625 0  0.09375 0.40625 0  0.125 0.40625 0  0.15625 0.40625 0  0.1875 0.40625 0  0.21875 0.40625 0  0.25 0.40625 0  0.28125 0.40625 0  0.3125 0.40625 0  0.34375 0.40625 0  0.375 0.40625 0  0.40625 0.40625 0  0.4375 0.40625 0  0.46875 0.40625 0  0.5 0.40625 0  0.53125 0.40625 0  0.5625 0.40625 0  0.59375 0.40625 0  0.625 0.40625 0  0.65625 0.40625 0  0.6875 0.40625 0  0.71875 0.40625 0  0.75 0.40625 0  0.78125 0.40625 0  0.8125 0.40625 0  0.84375 0.40625 0  0.875 0.40625 0  0.90625 0.40625 0  0.9375 0.40625 0  0.96875 0.40625 0  1 0.40625 0  0 0.4375 0  0.03125 0.4375 0  0.0625 0.4375 0  0.09375 0.4375 0  0.125 0.4375 0  0.15625 0.4375 0  0.1875 0.4375 0  0.21875 0.4375 0  0.25 0.4375 0  0.28125 0.4375 0  0.3125 0.4375 0  0.34375 0.4375 0  0.375 0.4375 0  0.40625 0.4375 0  0.4375 0.4375 0  0.46875 0.4375 0  0.5 0.4375 0  0.53125 0.4375 0  0.5625 0.4375 0  0.59375 0.4375 0  0.625 0.4375 0  0.65625 0.4375 0  0.6875 0.4375 0  0.71875 0.4375 0  0.75 0.4375 0  0.78125 0.4375 0  0.8125 0.4375 0  0.84375 0.4375 0  0.875 0.4375 0  0.90625 0.4375 0  0.9375 0.4375 0  0.96875 0.4375 0  1 0.4375 0  0 0.46875 0  0.03125 0.46875 0  0.0625 0.46875 0  0.09375 0.46875 0  0.125 0.46875 0  0.15625 0.46875 0  0.1875 0.46875 0  0.21875 0.46875 0  0.25 0.46875 0  0.28125 0.46875 0  0.3125 0.46875 0  0.34375 0.46875 0  0.375 0.46875 0  0.40625 0.46875 0  0.4375 0.46875 0  0.46875 0.46875 0  0.5 0.46875 0  0.53125 0.46875 0  0.5625 0.46875 0  0.59375 0.46875 0  0.625 0.46875 0  0.65625 0.46875 0  0.6875 0.46875 0  0.71875 0.46875 0  0.75 0.46875 0  0.78125 0.46875 0  0.8125 0.46875 0  0.84375 0.46875 0  0.875 0.46875 0  0.90625 0.46875 0  0.9375 0.46875 0  0.96875 0.46875 0  1 0.46875 0  0 0.5 0  0.03125 0.5 0  0.0625 0.5 0  0.09375 0.5 0  0.125 0.5 0  0.15625 0.5 0  0.1875 0.5 0  0.21875 0.5 0  0.25 0.5 0  0.28125 0.5 0  0.3125 0.5 0  0.34375 0.5 0  0.375 0.5 0  0.40625 0.5 0  0.4375 0.5 0  0.46875 0.5 0  0.5 0.5 0  0.53125 0.5 0  0.5625 0.5 0  0.59375 0.5 0  0.625 0.5 0  0.65625 0.5 0  0.6875 0.5 0  0.71875 0.5 0  0.75 0.5 0  0.78125 0.5 0  0.8125 0.5 0  0.84375 0.5 0  0.875 0.5 0  0.90625 0.5 0  0.9375 0.5 0  0.96875 0.5 0  1 0.5 0  0 0.53125 0  0.03125 0.53125 0  0.0625 0.53125 0  0.09375 0.53125 0  0.125 0.53125 0  0.15625 0.53125 0  0.1875 0.53125 0  0.21875 0.53125 0  0.25 0.53125 0  0.28125 0.53125 0  0.3125 0.53125 0  0.34375 0.53125 0  0.375 0.53125 0  0.40625 0.53125 0  0.4375 0.53125 0  0.46875 0.53125 0  0.5 0.53125 0  0.53125 0.53125 0  0.5625 0.53125 0  0.59375 0.53125 0  0.625 0.53125 0  0.65625 0.53125 0  0.6875 0.53125 0  0.71875 0.53125 0  0.75 0.53125 0  0.78125 0.531
[...]
<PointData  Scalars="phi"> 
<DataArray  type="Float64"  Name="phi"  format="ascii">0.0000000000000000e+00  0.0000000000000000e+00  0.0000000000000000e+00  0.0000000000000000e+00  0.0000000000000000e+00  0.0000000000000000e+00  0.0000000000000000e+00  0.0000000000000000e+00  0.0000000000000000e+00  0.0000000000000000e+00  0.0000000000000000e+00  0.0000000000000000e+00  0.0000000000000000e+00  0.0000000000000000e+00  0.0000000000000000e+00  0.0000000000000000e+00  0.0000000000000000e+00  0.0000000000000000e+00  0.0000000000000000e+00  0.0000000000000000e+00  0.0000000000000000e+00  0.0000000000000000e+00  0.0000000000000000e+00  0.0000000000000000e+00  0.0000000000000000e+00  0.0000000000000000e+00  0.0000000000000000e+00  0.0000000000000000e+00  0.0000000000000000e+00  0.0000000000000000e+00  0.0000000000000000e+00  0.0000000000000000e+00  0.0000000000000000e+00  0.0000000000000000e+00  -5.9364786808743288e-07  -1.1710473782288408e-06  -1.7192266153911372e-06  -2.2257663613715131e-06  -2.6794264461543757e-06  -3.0705942786024078e-06  -3.3916189674146791e-06  -3.6370533203967358e-06  -3.8038069580766107e-06  -3.8912098583604194e-06  -3.9009864338686634e-06  -3.8371425971040558e-06  -3.7057711071224980e-06  -3.5147833588210466e-06  -3.2735784299747908e-06  -2.9926624853383955e-06  -2.6832334397829090e-06  -2.3567470232840134e-06  -2.0244810167859691e-06  -1.6971144131745528e-06  -1.3843376015633336e-06  -1.0945084010979900e-06  -8.3436693205421806e-07  -6.0881997902422636e-07  -4.2080276510564950e-07  -2.7122302570474690e-07  -1.5898906839442227e-07  -8.1120266644263649e-08  -3.2935312533457880e-08  -8.3107369641483607e-09  -1.3857919670839803e-19  0.0000000000000000e+00  0.0000000000000000e+00  -1.1710473782288382e-06  -2.3112610742350934e-06  -3.3940110405207218e-06  -4.3943869196081937e-06  -5.2899867519128788e-06  -6.0616980831334169e-06  -6.6943282850309239e-06  -7.1770742074759186e-06  -7.5038223093679151e-06  -7.6732731974571216e-06  -7.6888891734457898e-06  -7.5586690700521552e-06  -7.2947606561598423e-06  -6.9129267335865278e-06  -6.4318863883220127e-06  -5.8725574332514480e-06  -5.2572296826082028e-06  -4.6087011778378350e-06  -3.9494107379172623e-06  -3.3006001831849934e-06  -2.6815382803764803e-06  -2.1088359282074789e-06  -1.5958784459862380e-06  -1.1523961850833275e-06  -7.8418923635763167e-07  -4.9301597021740487e-07  -2.7664876019303254e-07  -1.2909376581781563e-07  -4.0965362577445230e-08  -5.4521122132613136e-19  8.3107369635984610e-09  0.0000000000000000e+00  0.0000000000000000e+00  -1.7192266153911264e-06  -3.3940110405207083e-06  -4.9843608812386007e-06  -6.4531477194340841e-06  -7.7670914756812900e-06  -8.8978547690796233e-06  -9.8229489510959153e-06  -1.0526417967652460e-05  -1.0999277599105101e-05  -1.1239696939048507e-05  -1.1252918220938164e-05  -1.1050920538572280e-05  -1.0651842361005310e-05  -1.0079186628284414e-05  -9.3608402520530456e-06  -8.5279466978922709e-06  -7.6136757137693320e-06  -6.6519379744223032e-06  -5.6760942875921708e-06  -4.7177089806158663e-06  -3.8053951559018350e-06  -2.9637957464510450e-06  -2.2127388642282088e-06  -1.5665990266263790e-06  -1.0338877387036965e-06  -6.1708791791520384e-07  -3.1273712620879858e-07  -1.1175489732564223e-07  -1.1896429084005412e-18  4.0965362575834272e-08  3.2935312532645185e-08  0.0000000000000000e+00  0.0000000000000000e+00  -2.2257663613714868e-06  -4.3943869196081530e-06  -6.4531477194340486e-06  -8.3532478111915800e-06  -1.0051022562315683e-05  -1.1509352486245554e-05  -1.2698835319113846e-05  -1.3598673936797891e-05  -1.4197247146809008e-05  -1.4492343781917895e-05  -1.4491053666098669e-05  -1.4209322044414847e-05  -1.3671186720373799e-05  -1.2907729030056328e-05  -1.1955780471388072e-05  -1.0856435893318616e-05  -9.6534312832505818e-06  -8.3914490960931483e-06  -7.1144165555760451e-06  -5.8638623327014848e-06  -4.6773944696886959e-06  -3.5873574699710965e-06  -2.6197193085079032e-06  -1.7932300104224397e-06  -1.1188827533732286e-06  -5.9969658510469365e-07  -2.3082727257711898e-07  -2.0228874965596225e-18  1.1175489732253923e-07  1.2909376581571411e-07  8.1120266643203203e-08  0.0000000000000000e+00  0.0000000000000000e+00  -2.6794264461543232e-06  -5.2899867519127907e-06  -7.7670914756811918e-06  -1.0051022562315608e-05  -1.2088410097079385e-05  -1.3833952159513353e-05  -1.5251844192853053e-05  -1.6316861570751935e-05  -1.7015054496382679e-05  -1.7344030383540114e-05  -1.7312815149993423e-05  -1.6941301081398961e-05  -1.6259304665145097e-05  -1.5305272541547124e-05  -1.4124686955626138e-05  -1.2768233329587670e-05  -1.1289801392454308e-05  -9.7443973655475135e-06  -8.1860477810661394e-06  -6.6657754904086794e-06  -5.2297253027667975e-06  -3.9175106056584203e-06  -2.7608434946991024e-06  -1.7824997225347795e-06  -9.9565660095480430e-07  -4.0362736523591699e-07  -2.9814483382643722e-18  2.3082727257220650e-07  3.1273712620502992e-07  2.7664876019047959e-07  1.5898906839313372e-07  0.0000000000000000e+00  0.0000000000000000e+00  -3.0705942786023189e-06  -6.0616980831332593e-06  -8.8978547690794268e-06  -1.1509352486245366e-05  -1.3833952159513225e-05  -1.5818906271729401e-05  -1.7422633407286138e-05  -1.8615984644592451e-05  -1.9383054436928009e-05  -1.9721506765392057e-05  -1.9642406294355675e-05  -1.9169563347478460e-05  -1.8338420102415406e-05  -1.7194522824615702e-05  -1.5791640596082644e-05  -1.4189604266811292e-05  -1.2451949769001966e-05  -1.0643457095704879e-05  -8.8276798870911270e-06  -7.0645605538266640e-06  -5.4082222026938022e-06  -3.9050214593562467e-06  -2.5919358863016772e-06  -1.4953464736621142e-06  -6.3026014812474920e-07  -3.9924555591416219e-18  4.0362736522901536e-07  5.9969658509900582e-07  6.1708791791083898e-07  4.9301597021444746e-07  2.7122302570325385e-07  0.0000000000000000e+00  0.0000000000000000e+00  -3.3916189674145423e-06  -6.6943282850306698e-06  -9.8229489510955849e-06  -1.2698835319113493e-05  -1.5251844192852735e-05  -1.7422633407285935e-05  -1.9164565268085874e-05  -2.0445143620488693e-05  -2.1246931376145085e-05  -2.1567915506381475e-05  -2.1421307866821463e-05  -2.0834791893339467e-05  -1.9849246384595105e-05  -1.8516997475089997e-05  -1.6899667764723490e-05  -1.5065706737992492e-05  -1.3087698508346903e-05  -1.1039551112610423e-05  -8.9936757490294225e-06  -7.0182643458225833e-06  -5.1747696701876587e-06  -3.5156840055260057e-06  -2.0827005557333759e-06  -9.0532663969011576e-07  -4.9792332567073761e-18  6.3026014811582941e-07  9.9565660094709100e-07  1.1188827533668692e-06  1.0338877386988146e-06  7.8418923635432295e-07  4.2080276510397873e-07  0.0000000000000000e+00  0.0000000000000000e+00  -3.6370533203965372e-06  -7.1770742074755459e-06  -1.0526417967651955e-05  -1.3598673936797315e-05  -1.6316861570751365e-05  -1.8615984644591963e-05  -2.0445143620488401e-05  -2.1769127843162405e-05  -2.2569429011814816e-05  -2.2844639560742067e-05  -2.2610223173523344e-05  -2.1897668691218422e-05  -2.0753062213104456e-05  -1.9235134327671099e-05  -1.7412859310910774e-05  -1.5362700034271239e-05  -1.3165605595678687e-05  -1.0903877821598689e-05  -8.6580274416735681e-06  -6.5037407368606410e-06  -4.5090728122672836e-06  -2.7319745303696316e-06  -1.2182469136354042e-06  -5.8676273628251320e-18  9.0532663967930148e-07  1.4953464736524219e-06  1.7824997225263932e-06  1.7932300104155222e-06  1.5665990266210670e-06  1.1523961850797263e-06  6.0881997902240757e-07  0.0000000000000000e+00  0.0000000000000000e+00  -3.8038069580763367e-06  -7.5038223093673959e-06  -1.0999277599104386e-05  -1.4197247146808164e-05  -1.7015054496381792e-05  -1.9383054436927175e-05  -2.1246931376144414e-05  -2.2569429011814430e-05  -2.3331447785678024e-05  -2.3532470704615206e-05  -2.3190303771340215e-05  -2.2340143445273332e-05  -2.1033009223713170e-05  -1.9333603599611393e-05  -1.7317683387137234e-05  -1.5069044878933961e-05  -1.2676239805190057e-05  -1.0229149052580581e-05  -7.8155461923499396e-06  -5.5177828707331721e-06  -3.4097230361958999e-06  -1.5540430163483868e-06  -6.5906237209975918e-18  1.2182469136229604e-06  2.0827005557218991e-06  2.5919358862913832e-06  2.7608434946901895e-06  2.6197193085005480e-06  2.2127388642225583e-06  1.5958784459824061e-06  8.3436693205228228e-07  0.0000000000000000e+00  0.0000000000000000e+00  -3.8912098583600628e-06  -7.6732731974564372e-06  -1.1239696939047552e-05  -1.4492343781916743e-05  -1.7344030383538860e-05  -1.9721506765390803e-05  -2.1567915506380347e-05  -2.2844639560741186e-05  -2.3532470704614708e-05  -2.3632056477113052e-05  -2.3163611003119507e-05  -2.2165903175990958e-05  -2.0694563238230316e-05  -1.8819774757286447e-05  -1.6623442350601691e-05  -1.4195945371653296e-05  -1.1632603366463705e-05  -9.0299898520669994e-06  -6.4822364459487306e-06  -4.0774693822432742e-06  -1.8945149904817953e-06  -7.0954995459747765e-18  1.5540430163347009e-06  2.7319745303566966e-06  3.5156840055140634e-06  3.9050214593455267e-06  3.9175106056491334e-06  3.5873574699634275e-06  2.9637957464451505e-06  2.1088359282034801e-06  1.0945084010959694e-06  0.0000000000000000e+00  0.0000000000000000e+00  -3.9009864338682145e-06  -7.6888891734449242e-06  -1.1252918220936938e-05  -1.4491053666097166e-05  -1.7312815149991750e-05  -1.9642406294353941e-05  -2.1421307866819810e-05  -2.2610223173521908e-05  -2.3190303771339124e-05  -2.3163611003118904e-05  -2.2552798010087092e-05  -2.1400026627336070e-05  -1.9765162762398274e-05  -1.7723321361840404e-05  -1.5361856824463286e-05  -1.2776915769082423e-05  -1.0069685601593260e-05  -7.3424837164993829e-06  -4.6948379773197113e-06  -2.2197091283096212e-06  -7.3448338666211022e-18  1.8945149904673436e-06  3.4097230361819413e-06  4.5090728122540733e-06  5.1747696701754496e-06  5.4082222026828305e-06  5.2297253027572853e-06  4.6773944696808354e-06  3.8053951558957910e-06  2.6815382803723786e-06  1.3843376015612605e-06  0.0000000000000000e+00  0.0000000000000000e+00  -3.8371425971035103e-06  -7.5586690700510930e-06  -1.1050920538570762e-05  -1.4209322044412966e-05  -1.6941301081396826e-05  -1.9169563347476197e-05  -2.0834791893337224e-05  -2.1897668691216342e-05  -2.2340143445271564e-05  -2.2165903175989654e-05  -2.1400026627335365e-05  -2.0087838684304127e-05  -1.8293010543928587e-05  -1.6094980172821396e-05  -1.3585793497677077e-05  -1.0866488813381655e-05  -8.0431642088506533e-06  -5.2228797386599162e-06  -2.5095521521987120e-06  -7.3217477185666365e-18  2.2197091282949371e-06  4.0774693822287993e-06  5.5177828707191655e-06  6.5037407368473638e-06  7.0182643458102971e-06  7.0645605538156119e-06  6.6657754903990885e-06  5.8638623326935540e-06  4.7177089806097643e-06  3.3006001831808501e-06  1.6971144131724586e-06  0.0000000000000000e+00  0.0000000000000000e+00  -3.7057711071218466e-06  -7.2947606561585743e-06  -1.0651842361003492e-05  -1.3671186720371522e-05  -1.6259304665142481e-05  -1.8338420102412580e-05  -1.9849246384592225e-05  -2.0753062213101684e-05  -2.1033009223710669e-05  -2.0694563238228246e-05  -1.9765162762396779e-05  -1.8293010543927794e-05  -1.6345095633020736e-05  -1.4004513189431543e-05  -1.1367186105635590e-05  -8.5381153311397921e-06  -5.6273037103112867e-06  -2.7455104960157453e-06  -7.0279607405370451e-18  2.5095521521843421e-06  4.6948379773052617e-06  6.4822364459344530e-06  7.8155461923360940e-06  8.6580274416604187e-06  8.9936757490172422e-06  8.8276798870801562e-06  8.1860477810566068e-06  7.1144165555681576e-06  5.6760942875860984e-06  3.9494107379131372e-06  2.0244810167838833e-06  0.0000000000000000e+00  0.0000000000000000e+00  -3.5147833588202906e-06  -6.9129267335850497e-06  -1.0079186628282281e-05  -1.2907729030053645e-05  -1.5305272541544017e-05  -1.7194522824612303e-05  -1.8516997475086470e-05  -1.9235134327667609e-05  -1.9333603599608127e-05  -1.8819774757283567e-05  -1.7723321361838066e-05  -1.6094980172819739e-05  -1.4004513189430669e-05  -1.1537951838456547e-05  -8.7942299991975684e-06  -5.8813359298521187e-06  -2.9121315266672018e-06  -6.4870435980646509e-18  2.7455104960022126e-06  5.2228797386460307e-06  7.3424837164853781e-06  9.0299898520531233e-06  1.0229149052567096e-05  1.0903877821585859e-05  1.1039551112598513e-05  1.0643457095694140e-05  9.7443973655381758e-06  8.3914490960854148e-06  6.6519379744163426e-06  4.6087011778337845e-06  2.3567470232819640e-06  0.0000000000000000e+00  0.0000000000000000e+00  -3.2735784299739306e-06  -6.4318863883203288e-06  -9.3608402520506112e-06  -1.1955780471384986e-05  -1.4124686955622539e-05  -1.5791640596078673e-05  -1.6899667764719315e-05  -1.7412859310906566e-05  -1.7317683387133189e-05  -1.6623442350597985e-05  -1.5361856824460081e-05  -1.3585793497674520e-05  -1.1367186105633798e-05  -8.7942299991966435e-06  -5.9679585837953085e-06  -2.9983336191159862e-06  -5.7387701413048420e-18  2.9121315266549621e-06  5.6273037102984576e-06  8.0431642088374328e-06  1.0069685601579877e-05  1.1632603366450406e-05  1.2676239805177101e-05  1.3165605595666335e-05  1.3087698508335417e-05  1.2451949768991590e-05  1.1289801392445273e-05  9.6534312832430907e-06  7.6136757137635578e-06  5.2572296826042760e-06  2.6832334397809210e-06  0.0000000000000000e+00  0.0000000000000000e+00  -2.9926624853374384e-06  -5.8725574332495710e-06  -8.5279466978895502e-06  -1.0856435893315152e-05  -1.2768233329583597e-05  -1.4189604266806769e-05  -1.5065706737987693e-05  -1.5362700034266340e-05  -1.5069044878929158e-05  -1.4195945371648774e-05  -1.2776915769078354e-05  -1.0866488813378193e-05  -8.5381153311370748e-06  -5.8813359298502484e-06  -2.9983336191150328e-06  -4.8358369189707506e-18  2.9983336191054067e-06  5.8813359298407599e-06  8.5381153311278167e-06  1.0866488813369251e-05  1.2776915769069818e-05  1.4195945371640731e-05  1.5069044878921682e-05  1.5362700034259502e-05  1.5065706737981560e-05  1.4189604266801395e-05  1.2768233329579037e-05  1.0856435893311452e-05  8.5279466978867448e-06  5.8725574332476872e-06  2.9926624853364914e-06  0.0000000000000000e+00  0.0000000000000000e+00  -2.6832334397818634e-06  -5.2572296826061513e-06  -7.6136757137663471e-06  -9.6534312832467702e-06  -1.1289801392449810e-05  -1.2451949768996936e-05  -1.3087698508341519e-05  -1.3165605595673140e-05  -1.2676239805184542e-05  -1.1632603366458409e-05  -1.0069685601588368e-05  -8.0431642088463232e-06  -5.6273037103076640e-06  -2.9121315266644006e-06  -3.8383409636513894e-18  2.9983336191063617e-06  5.9679585837857269e-06  8.7942299991871973e-06  1.1367186105624575e-05  1.3585793497665610e-05  1.5361856824451573e-05  1.6623442350589975e-05  1.7317683387125755e-05  1.7412859310899769e-05  1.6899667764713217e-05  1.5791640596073323e-05  1.4124686955618001e-05  1.1955780471381305e-05  9.3608402520478194e-06  6.4318863883184534e-06  3.2735784299729883e-06  0.0000000000000000e+00  0.0000000000000000e+00  -2.3567470232828919e-06  -4.6087011778356327e-06  -6.6519379744190921e-06  -8.3914490960890384e-06  -9.7443973655426448e-06  -1.0643457095699407e-05  -1.1039551112604529e-05  -1.0903877821592566e-05  -1.0229149052574428e-05  -9.0299898520610092e-06  -7.3424837164937400e-06  -5.2228797386547899e-06  -2.7455104960112844e-06  -2.8113274785397962e-18  2.9121315266577650e-06  5.8813359298426353e-06  8.7942299991881257e-06  1.1537951838447233e-05  1.4004513189421573e-05  1.6094980172810950e-05  1.7723321361829684e-05  1.8819774757275672e-05  1.9333603599600795e-05  1.9235134327660907e-05  1.8516997475080456e-05  1.7194522824607035e-05  1.5305272541539545e-05  1.2907729030050016e-05  1.0079186628279530e-05  6.9129267335832006e-06  3.5147833588193614e-06  0.0000000000000000e+00  0.0000000000000000e+00  -2.0244810167847883e-06  -3.9494107379149389e-06  -5.6760942875887801e-06  -7.1144165555716931e-06  -8.1860477810609674e-06  -8.8276798870852926e-06  -8.9936757490231104e-06  -8.6580274416669646e-06  -7.8155461923432464e-06  -6.4822364459421458e-06  -4.6948379773134178e-06  -2.5095521521928861e-06  -1.8214924378471269e-18  2.7455104960066748e-06  5.6273037103020803e-06  8.5381153311305391e-06  1.1367186105626371e-05  1.4004513189422449e-05  1.6345095633011865e-05  1.8293010543919215e-05  1.9765162762388600e-05  2.0694563238220544e-05  2.1033009223703524e-05  2.0753062213095145e-05  1.9849246384586357e-05  1.8338420102407444e-05  1.6259304665138114e-05  1.3671186720367980e-05  1.0651842361000807e-05  7.2947606561567693e-06  3.7057711071209394e-06  0.0000000000000000e+00  0.0000000000000000e+00  -1.6971144131733318e-06  -3.3006001831825883e-06  -4.7177089806123512e-06  -5.8638623326969650e-06  -6.6657754904032923e-06  -7.0645605538205670e-06  -7.0182643458159578e-06  -6.5037407368536759e-06  -5.5177828707260655e-06  -4.0774693822362193e-06  -2.2197091283028077e-06  -9.2354461618178319e-19  2.5095521521901705e-06  5.2228797386511595e-06  8.0431642088417628e-06  1.0866488813372717e-05  1.3585793497668176e-05  1.6094980172812613e-05  1.8293010543920022e-05  2.0087838684295849e-05  2.1400026627327471e-05  2.2165903175982227e-05  2.2340143445264665e-05  2.1897668691210033e-05  2.0834791893331559e-05  1.9169563347471237e-05  1.6941301081392618e-05  1.4209322044409544e-05  1.1050920538568167e-05  7.5586690700493498e-06  3.8371425971026345e-06  0.0000000000000000e+00  0.0000000000000000e+00  -1.3843376015620936e-06  -2.6815382803740375e-06  -3.8053951558982593e-06  -4.6773944696840897e-06  -5.2297253027612935e-06  -5.4082222026875570e-06  -5.1747696701808486e-06  -4.5090728122600914e-06  -3.4097230361885223e-06  -1.8945149904744231e-06  -1.6437746329657995e-19  2.2197091283017531e-06  4.6948379773115603e-06  7.3424837164910252e-06  1.0069685601584773e-05  1.2776915769073889e-05  1.5361856824454788e-05  1.7723321361832029e-05  1.9765162762390105e-05  2.1400026627328182e-05  2.2552798010079570e-05  2.3163611003111809e-05  2.3190303771332534e-05  2.2610223173515884e-05  2.1421307866814402e-05  1.9642406294349204e-05  1.7312815149987725e-05  1.4491053666093895e-05  1.1252918220934459e-05  7.6888891734432606e-06  3.9009864338673793e-06  0.0000000000000000e+00  0.0000000000000000e+00  -1.0945084010967542e-06  -2.1088359282050429e-06  -2.9637957464474756e-06  -3.5873574699664933e-06  -3.9175106056529112e-06  -3.9050214593499804e-06  -3.5156840055191507e-06  -2.7319745303623679e-06  -1.5540430163409012e-06  4.2498356128404649e-19  1.8945149904747192e-06  4.0774693822358602e-06  6.4822364459410497e-06  9.0299898520591220e-06  1.1632603366455705e-05  1.4195945371645256e-05  1.6623442350593688e-05  1.8819774757278559e-05  2.0694563238222625e-05  2.2165903175983535e-05  2.3163611003112415e-05  2.3632056477106371e-05  2.3532470704608497e-05  2.2844639560735518e-05  2.1567915506375244e-05  1.9721506765386331e-05  1.7344030383535066e-05  1.4492343781913657e-05  1.1239696939045212e-05  7.6732731974548685e-06  3.8912098583592750e-06  0.0000000000000000e+00  0.0000000000000000e+00  -8.3436693205301147e-07  -1.5958784459838575e-06  -2.2127388642247186e-06  -2.6197193085033962e-06  -2.7608434946937000e-06  -2.5919358862955218e-06  -2.0827005557266259e-06  -1.2182469136282298e-06  8.2939379678299728e-19  1.5540430163421887e-06  3.4097230361893249e-06  5.5177828707262840e-06  7.8155461923428008e-06  1.0229149052573262e-05  1.2676239805182627e-05  1.5069044878926490e-05  1.7317683387129794e-05  1.9333603599604061e-05  2.1033009223706028e-05  2.2340143445266427e-05  2.3190303771333622e-05  2.3532470704608996e-05  2.3331447785672248e-05  2.2569429011809144e-05  2.1246931376139664e-05  1.9383054436923011e-05  1.7015054496378254e-05  1.4197247146805289e-05  1.0999277599102204e-05  7.5038223093659356e-06  3.8038069580756044e-06  0.0000000000000000e+00  0.0000000000000000e+00  -6.0881997902307418e-07  -1.1523961850810530e-06  -1.5665990266230419e-06  -1.7932300104181267e-06  -1.7824997225296020e-06  -1.4953464736562049e-06  -9.0532663968362272e-07  1.0500177341042089e-18  1.2182469136301365e-06  2.7319745303639645e-06  4.5090728122612713e-06  6.5037407368543433e-06  8.6580274416670425e-06  1.0903877821591994e-05  1.3165605595671890e-05  1.5362700034264402e-05  1.7412859310903970e-05  1.9235134327