<?xml version="1.0"?>
<VTKFile type="UnstructuredGrid"  version="0.1"  >
<UnstructuredGrid>
<Piece  NumberOfPoints="1089" NumberOfCells="2048">
<Points>
<DataArray  type="Float64"  NumberOfComponents="3"  format="ascii">0 0 0  0.03125 0 0  0.0625 0 0  0.09375 0 0  0.125 0 0  0.15625 0 0  0.1875 0 0  0.21875 0 0  0.25 0 0  0.28125 0 0  0.3125 0 0  0.34375 0 0  0.375 0 0  0.40625 0 0  0.4375 0 0  0.46875 0 0  0.5 0 0  0.53125 0 0  0.5625 0 0  0.59375 0 0  0.625 0 0  0.65625 0 0  0.6875 0 0  0.71875 0 0  0.75 0 0  0.78125 0 0  0.8125 0 0  0.84375 0 0  0.875 0 0  0.90625 0 0  0.9375 0 0  0.96875 0 0  1 0 0  0 0.03125 0  0.03125 0.03125 0  0.0625 0.03125 0  0.09375 0.03125 0  0.125 0.03125 0  0.15625 0.03125 0  0.1875 0.03125 0  0.21875 0.03125 0  0.25 0.03125 0  0.28125 0.03125 0  0.3125 0.03125 0  0.34375 0.03125 0  0.375 0.03125 0  0.40625 0.03125 0  0.4375 0.03125 0  0.46875 0.03125 0  0.5 0.03125 0  0.53125 0.03125 0  0.5625 0.03125 0  0.59375 0.03125 0  0.625 0.03125 0  0.65625 0.03125 0  0.6875 0.03125 0  0.71875 0.03125 0  0.75 0.03125 0  0.78125 0.03125 0  0.8125 0.03125 0  0.84375 0.03125 0  0.875 0.03125 0  0.90625 0.03125 0  0.9375 0.03125 0  0.96875 0.03125 0  1 0.03125 0  0 0.0625 0  0.03125 0.0625 0  0.0625 0.0625 0  0.09375 0.0625 0  0.125 0.0625 0  0.15625 0.0625 0  0.1875 0.0625 0  0.21875 0.0625 0  0.25 0.0625 0  0.28125 0.0625 0  0.3125 0.0625 0  0.34375 0.0625 0  0.375 0.0625 0  0.40625 0.0625 0  0.4375 0.0625 0  0.46875 0.0625 0  0.5 0.0625 0  0.53125 0.0625 0  0.5625 0.0625 0  0.59375 0.0625 0  0.625 0.0625 0  0.65625 0.0625 0  0.6875 0.0625 0  0.71875 0.0625 0  0.75 0.0625 0  0.78125 0.0625 0  0.8125 0.0625 0  0.84375 0.0625 0  0.875 0.0625 0  0.90625 0.0625 0  0.9375 0.0625 0  0.96875 0.0625 0  1 0.0625 0  0 0.09375 0  0.03125 0.09375 0  0.0625 0.09375 0  0.09375 0.09375 0  0.125 0.09375 0  0.15625 0.09375 0  0.1875 0.09375 0  0.21875 0.09375 0  0.25 0.09375 0  0.28125 0.09375 0  0.3125 0.09375 0  0.34375 0.09375 0  0.375 0.09375 0  0.40625 0.09375 0  0.4375 0.09375 0  0.46875 0.09375 0  0.5 0.09375 0  0.53125 0.09375 0  0.5625 0.09375 0  0.59375 0.09375 0  0.625 0.09375 0  0.65625 0.09375 0  0.6875 0.09375 0  0.71875 0.09375 0  0.75 0.09375 0  0.78125 0.09375 0  0.8125 0.09375 0  0.84375 0.09375 0  0.875 0.09375 0  0.90625 0.09375 0  0.9375 0.09375 0  0.96875 0.09375 0  1 0.09375 0  0 0.125 0  0.03125 0.125 0  0.0625 0.125 0  0.09375 0.125 0  0.125 0.125 0  0.15625 0.125 0  0.1875 0.125 0  0.21875 0.125 0  0.25 0.125 0  0.28125 0.125 0  0.3125 0.125 0  0.34375 0.125 0  0.375 0.125 0  0.40625 0.125 0  0.4375 0.125 0  0.46875 0.125 0  0.5 0.125 0  0.53125 0.125 0  0.5625 0.125 0  0.59375 0.125 0  0.625 0.125 0  0.65625 0.125 0  0.6875 0.125 0  0.71875 0.125 0  0.75 0.125 0  0.78125 0.125 0  0.8125 0.125 0  0.84375 0.125 0  0.875 0.125 0  0.90625 0.125 0  0.9375 0.125 0  0.96875 0.125 0  1 0.125 0  0 0.15625 0  0.03125 0.15625 0  0.0625 0.15625 0  0.09375 0.15625 0  0.125 0.15625 0  0.15625 0.15625 0  0.1875 0.15625 0  0.21875 0.15625 0  0.25 0.15625 0  0.28125 0.15625 0  0.3125 0.15625 0  0.34375 0.15625 0  0.375 0.15625 0  0.40625 0.15625 0  0.4375 0.15625 0  0.46875 0.15625 0  0.5 0.15625 0  0.53125 0.15625 0  0.5625 0.15625 0  0.59375 0.15625 0  0.625 0.15625 0  0.65625 0.15625 0  0.6875 0.15625 0  0.71875 0.15625 0  0.75 0.15625 0  0.78125 0.15625 0  0.8125 0.15625 0  0.84375 0.15625 0  0.875 0.15625 0  0.90625 0.15625 0  0.9375 0.15625 0  0.96875 0.15625 0  1 0.15625 0  0 0.1875 0  0.03125 0.1875 0  0.0625 0.1875 0  0.09375 0.1875 0  0.125 0.1875 0  0.15625 0.1875 0  0.1875 0.1875 0  0.21875 0.1875 0  0.25 0.1875 0  0.28125 0.1875 0  0.3125 0.1875 0  0.34375 0.1875 0  0.375 0.1875 0  0.40625 0.1875 0  0.4375 0.1875 0  0.46875 0.1875 0  0.5 0.1875 0  0.53125 0.1875 0  0.5625 0.1875 0  0.59375 0.1875 0  0.625 0.1875 0  0.65625 0.1875 0  0.6875 0.1875 0  0.71875 0.1875 0  0.75 0.1875 0  0.78125 0.1875 0  0.8125 0.1875 0  0.84375 0.1875 0  0.875 0.1875 0  0.90625 0.1875 0  0.9375 0.1875 0  0.96875 0.1875 0  1 0.1875 0  0 0.21875 0  0.03125 0.21875 0  0.0625 0.21875 0  0.09375 0.21875 0  0.125 0.21875 0  0.15625 0.21875 0  0.1875 0.21875 0  0.21875 0.21875 0  0.25 0.21875 0  0.28125 0.21875 0  0.3125 0.21875 0  0.34375 0.21875 0  0.375 0.21875 0  0.40625 0.21875 0  0.4375 0.21875 0  0.46875 0.21875 0  0.5 0.21875 0  0.53125 0.21875 0  0.5625 0.21875 0  0.59375 0.21875 0  0.625 0.21875 0  0.65625 0.21875 0  0.6875 0.21875 0  0.71875 0.21875 0  0.75 0.21875 0  0.78125 0.21875 0  0.8125 0.21875 0  0.84375 0.21875 0  0.875 0.21875 0  0.90625 0.21875 0  0.9375 0.21875 0  0.96875 0.21875 0  1 0.21875 0  0 0.25 0  0.03125 0.25 0  0.0625 0.25 0  0.09375 0.25 0  0.125 0.25 0  0.15625 0.25 0  0.1875 0.25 0  0.21875 0.25 0  0.25 0.25 0  0.28125 0.25 0  0.3125 0.25 0  0.34375 0.25 0  0.375 0.25 0  0.40625 0.25 0  0.4375 0.25 0  0.46875 0.25 0  0.5 0.25 0  0.53125 0.25 0  0.5625 0.25 0  0.59375 0.25 0  0.625 0.25 0  0.65625 0.25 0  0.6875 0.25 0  0.71875 0.25 0  0.75 0.25 0  0.78125 0.25 0  0.8125 0.25 0  0.84375 0.25 0  0.875 0.25 0  0.90625 0.25 0  0.9375 0.25 0  0.96875 0.25 0  1 0.25 0  0 0.28125 0  0.03125 0.28125 0  0.0625 0.28125 0  0.09375 0.28125 0  0.125 0.28125 0  0.15625 0.28125 0  0.1875 0.28125 0  0.21875 0.28125 0  0.25 0.28125 0  0.28125 0.28125 0  0.3125 0.28125 0  0.34375 0.28125 0  0.375 0.28125 0  0.40625 0.28125 0  0.4375 0.28125 0  0.46875 0.28125 0  0.5 0.28125 0  0.53125 0.28125 0  0.5625 0.28125 0  0.59375 0.28125 0  0.625 0.28125 0  0.65625 0.28125 0  0.6875 0.28125 0  0.71875 0.28125 0  0.75 0.28125 0  0.78125 0.28125 0  0.8125 0.28125 0  0.84375 0.28125 0  0.875 0.28125 0  0.90625 0.28125 0  0.9375 0.28125 0  0.96875 0.28125 0  1 0.28125 0  0 0.3125 0  0.03125 0.3125 0  0.0625 0.3125 0  0.09375 0.3125 0  0.125 0.3125 0  0.15625 0.3125 0  0.1875 0.3125 0  0.21875 0.3125 0  0.25 0.3125 0  0.28125 0.3125 0  0.3125 0.3125 0  0.34375 0.3125 0  0.375 0.3125 0  0.40625 0.3125 0  0.4375 0.3125 0  0.46875 0.3125 0  0.5 0.3125 0  0.53125 0.3125 0  0.5625 0.3125 0  0.59375 0.3125 0  0.625 0.3125 0  0.65625 0.3125 0  0.6875 0.3125 0  0.71875 0.3125 0  0.75 0.3125 0  0.78125 0.3125 0  0.8125 0.3125 0  0.84375 0.3125 0  0.875 0.3125 0  0.90625 0.3125 0  0.9375 0.3125 0  0.96875 0.3125 0  1 0.3125 0  0 0.34375 0  0.03125 0.34375 0  0.0625 0.34375 0  0.09375 0.34375 0  0.125 0.34375 0  0.15625 0.34375 0  0.1875 0.34375 0  0.21875 0.34375 0  0.25 0.34375 0  0.28125 0.34375 0  0.3125 0.34375 0  0.34375 0.34375 0  0.375 0.34375 0  0.40625 0.34375 0  0.4375 0.34375 0  0.46875 0.34375 0  0.5 0.34375 0  0.53125 0.34375 0  0.5625 0.34375 0  0.59375 0.34375 0  0.625 0.34375 0  0.65625 0.34375 0  0.6875 0.34375 0  0.71875 0.34375 0  0.75 0.34375 0  0.78125 0.34375 0  0.8125 0.34375 0  0.84375 0.34375 0  0.875 0.34375 0  0.90625 0.34375 0  0.9375 0.34375 0  0.96875 0.34375 0  1 0.34375 0  0 0.375 0  0.03125 0.375 0  0.0625 0.375 0  0.09375 0.375 0  0.125 0.375 0  0.15625 0.375 0  0.1875 0.375 0  0.21875 0.375 0  0.25 0.375 0  0.28125 0.375 0  0.3125 0.375 0  0.34375 0.375 0  0.375 0.375 0  0.40625 0.375 0  0.4375 0.375 0  0.46875 0.375 0  0.5 0.375 0  0.53125 0.375 0  0.5625 0.375 0  0.59375 0.375 0  0.625 0.375 0  0.65625 0.375 0  0.6875 0.375 0  0.71875 0.375 0  0.75 0.375 0  0.78125 0.375 0  0.8125 0.375 0  0.84375 0.375 0  0.875 0.375 0  0.90625 0.375 0  0.9375 0.375 0  0.96875 0.375 0  1 0.375 0  0 0.40625 0  0.03125 0.40625 0  0.0625 0.40625 0  0.09375 0.40625 0  0.125 0.40625 0  0.15625 0.40625 0  0.1875 0.40625 0  0.21875 0.40625 0  0.25 0.40625 0  0.28125 0.40625 0  0.3125 0.40625 0  0.34375 0.40625 0  0.375 0.40625 0  0.40625 0.40625 0  0.4375 0.40625 0  0.46875 0.40625 0  0.5 0.40625 0  0.53125 0.40625 0  0.5625 0.40625 0  0.59375 0.40625 0  0.625 0.40625 0  0.65625 0.40625 0  0.6875 0.40625 0  0.71875 0.40625 0  0.75 0.40625 0  0.78125 0.40625 0  0.8125 0.40625 0  0.84375 0.40625 0  0.875 0.40625 0  0.90625 0.40625 0  0.9375 0.40625 0  0.96875 0.40625 0  1 0.40625 0  0 0.4375 0  0.03125 0.4375 0  0.0625 0.4375 0  0.09375 0.4375 0  0.125 0.4375 0  0.15625 0.4375 0  0.1875 0.4375 0  0.21875 0.4375 0  0.25 0.4375 0  0.28125 0.4375 0  0.3125 0.4375 0  0.34375 0.4375 0  0.375 0.4375 0  0.40625 0.4375 0  0.4375 0.4375 0  0.46875 0.4375 0  0.5 0.4375 0  0.53125 0.4375 0  0.5625 0.4375 0  0.59375 0.4375 0  0.625 0.4375 0  0.65625 0.4375 0  0.6875 0.4375 0  0.71875 0.4375 0  0.75 0.4375 0  0.78125 0.4375 0  0.8125 0.4375 0  0.84375 0.4375 0  0.875 0.4375 0  0.90625 0.4375 0  0.9375 0.4375 0  0.96875 0.4375 0  1 0.4375 0  0 0.46875 0  0.03125 0.46875 0  0.0625 0.46875 0  0.09375 0.46875 0  0.125 0.46875 0  0.15625 0.46875 0  0.1875 0.46875 0  0.21875 0.46875 0  0.25 0.46875 0  0.28125 0.46875 0  0.3125 0.46875 0  0.34375 0.46875 0  0.375 0.46875 0  0.40625 0.46875 0  0.4375 0.46875 0  0.46875 0.46875 0  0.5 0.46875 0  0.53125 0.46875 0  0.5625 0.46875 0  0.59375 0.46875 0  0.625 0.46875 0  0.65625 0.46875 0  0.6875 0.46875 0  0.71875 0.46875 0  0.75 0.46875 0  0.78125 0.46875 0  0.8125 0.46875 0  0.84375 0.46875 0  0.875 0.46875 0  0.90625 0.46875 0  0.9375 0.46875 0  0.96875 0.46875 0  1 0.46875 0  0 0.5 0  0.03125 0.5 0  0.0625 0.5 0  0.09375 0.5 0  0.125 0.5 0  0.15625 0.5 0  0.1875 0.5 0  0.21875 0.5 0  0.25 0.5 0  0.28125 0.5 0  0.3125 0.5 0  0.34375 0.5 0  0.375 0.5 0  0.40625 0.5 0  0.4375 0.5 0  0.46875 0.5 0  0.5 0.5 0  0.53125 0.5 0  0.5625 0.5 0  0.59375 0.5 0  0.625 0.5 0  0.65625 0.5 0  0.6875 0.5 0  0.71875 0.5 0  0.75 0.5 0  0.78125 0.5 0  0.8125 0.5 0  0.84375 0.5 0  0.875 0.5 0  0.90625 0.5 0  0.9375 0.5 0  0.96875 0.5 0  1 0.5 0  0 0.53125 0  0.03125 0.53125 0  0.0625 0.53125 0  0.09375 0.53125 0  0.125 0.53125 0  0.15625 0.53125 0  0.1875 0.53125 0  0.21875 0.53125 0  0.25 0.53125 0  0.28125 0.53125 0  0.3125 0.53125 0  0.34375 0.53125 0  0.375 0.53125 0  0.40625 0.53125 0  0.4375 0.53125 0  0.46875 0.53125 0  0.5 0.53125 0  0.53125 0.53125 0  0.5625 0.53125 0  0.59375 0.53125 0  0.625 0.53125 0  0.65625 0.53125 0  0.6875 0.53125 0  0.71875 0.53125 0  0.75 0.53125 0  0.78125 0.531
[...]
<PointData  Scalars="theta"> 
<DataArray  type="Float64"  Name="theta"  format="ascii">-1.5780895289160407e-02  -1.4068018273930595e-02  -3.8060043226009234e-03  -1.8720381984654909e-03  -1.7493614432971354e-02  -2.4574068130444680e-02  -2.1752751269302002e-02  -9.4844737590524010e-03  -1.9380620383238935e-03  -2.4042907616788449e-03  -1.6636886926534856e-02  -3.1679543848155432e-02  -1.0683393118579975e-02  -1.7595307457209417e-02  -4.5842929668731356e-03  -1.9645622292412653e-03  -8.9080455862016461e-03  -1.2747561516069351e-02  -1.2717494224888033e-02  -1.1811287929980081e-02  -1.2864407656183581e-02  -1.6702782862068138e-02  -2.1547794926550710e-02  -2.4047898357637234e-02  -2.2431471376244769e-02  -9.0723663871986760e-03  -9.5799359983676190e-03  -3.6283386150927810e-03  -1.7278482348119988e-03  -1.1164393743656323e-03  -4.1671893324138993e-04  -1.9528910514277284e-03  -1.7175833403317892e-03  -1.7464584176775093e-04  -1.4757419029421608e-02  -1.2132839523702721e-02  -1.9319953561682350e-03  -1.7560185623235530e-03  -1.6359059089874423e-02  -2.2850561755496896e-02  -2.0227118423886060e-02  -8.8693544295950048e-03  -1.8179505722805444e-03  -1.2204606702252490e-03  -1.4348337862745588e-02  -2.9624954393385250e-02  -7.2748304251294858e-03  -1.6361257628312895e-02  -3.5308016651022125e-03  -1.8428084128920058e-03  -8.2044304739856896e-03  -1.0994023122617467e-02  -9.7949564108661090e-03  -8.0428676394531887e-03  -8.7599869423238465e-03  -1.2864407656183487e-02  -1.8583707587156155e-02  -2.2148439656204874e-02  -2.1041280113409708e-02  -6.9874954715617530e-03  -8.9080455862008672e-03  -2.4707083093145239e-03  -1.6157879482212654e-03  -9.6286339009258746e-04  -2.1153392786994071e-04  -1.8318605567523452e-03  -6.3037436453384698e-03  0.0000000000000000e+00  -1.3722404979652892e-02  -1.0012127885166469e-02  0.0000000000000000e+00  -1.6464726077772473e-03  -1.5211713746812747e-02  -2.1045676450610715e-02  -1.8629449657835601e-02  -8.2473007745007508e-03  -1.7045411043903177e-03  0.0000000000000000e+00  -1.1840376965403342e-02  -2.7547203266322963e-02  -3.6928330624324619e-03  -1.5068939575970259e-02  -2.4042907616786810e-03  -1.7278482348121675e-03  -7.4473338775799935e-03  -9.0723663871992641e-03  -6.6698516210790936e-03  -4.0827023861813539e-03  -4.4467248742109840e-03  -8.7599869423237824e-03  -1.5335442010887403e-02  -2.0104603910070074e-02  -1.9728658957600446e-02  -4.7581179581949705e-03  -8.2044304739849732e-03  -1.2541753964115093e-03  -1.5024643904553842e-03  -7.9456349675758903e-04  0.0000000000000000e+00  -1.0820293528784799e-02  -4.8551147843676860e-03  -1.7663243732226842e-03  -1.2638520593768398e-02  -7.7112955178940575e-03  -9.9990890387239295e-03  -1.5396899699425151e-03  -1.4010194112523982e-02  -1.9103602584504518e-02  -1.6910342771186981e-02  -7.5958755652587055e-03  -1.5939924110414210e-03  -2.1393324835955269e-02  -9.1194046730829134e-03  -2.5371346808258487e-02  0.0000000000000000e+00  -1.3678392980373613e-02  -1.2204606702251658e-03  -1.6157879482214231e-03  -6.6193201677579626e-03  -6.9874954715622058e-03  -3.3857350822581169e-03  0.0000000000000000e+00  0.0000000000000000e+00  -4.4467248742109510e-03  -1.1811287929979737e-02  -1.7869322406417518e-02  -1.8449148910191625e-02  -2.4153051389735006e-03  -7.4473338775793430e-03  0.0000000000000000e+00  -1.3837900257520584e-03  -6.1196920389987124e-04  -5.7489909475617980e-03  -9.3318676751636895e-03  -3.3060785425360010e-03  -1.6568563552848497e-03  -1.1472250618602534e-02  -5.2509878301845048e-03  -9.3793951281111471e-03  -1.4317035566000914e-03  -1.2717347483960605e-02  -1.6979614979412562e-02  -1.5030207425773594e-02  -6.8949358040634560e-03  -1.4821974869179417e-03  -2.0067472743103561e-02  -6.2098363168376705e-03  -2.3030104430049932e-02  -2.9275391408149852e-02  -1.2157594114328530e-02  0.0000000000000000e+00  -1.5024643904555310e-03  -5.7087748812667313e-03  -4.7581179581952775e-03  0.0000000000000000e+00  -4.1297714365105605e-02  -4.1297714365105292e-02  0.0000000000000000e+00  -8.0428676394529545e-03  -1.5411241081206940e-02  -1.7155214768303135e-02  0.0000000000000000e+00  -6.6193201677573850e-03  -1.9645622292410736e-03  -1.2560952732693694e-03  -9.2150426969258995e-04  -5.1098033670835671e-03  -7.7007408190524120e-03  -1.6782241558102248e-03  -1.5534964507371268e-03  -1.0196736327063355e-02  -2.6654946351399918e-03  -8.7942789941356861e-03  -1.3186183406692763e-03  -1.1303400124759912e-02  -1.4643920679377408e-02  -1.2962671156235638e-02  -6.1283391309514268e-03  -1.3651239334665092e-03  -1.8815600750323219e-02  -3.1522231478960973e-03  -2.0469558264109677e-02  -2.7461047949843026e-02  -1.0485210888359735e-02  -1.9380620383237404e-03  -1.3837900257521938e-03  -4.7109321826277048e-03  -2.4153051389736568e-03  -3.7916957255460897e-02  -3.8738286999755532e-02  -3.8738286999755234e-02  -3.7916957255459793e-02  -4.0827023861812351e-03  -1.2717494224887408e-02  -1.5800184840864775e-02  -1.1647803439590107e-02  -5.7087748812662325e-03  -1.8428084128918260e-03  -7.3126072923594262e-03  -8.1904905800105434e-04  -4.4069052970585158e-03  -5.9310756757713278e-03  0.0000000000000000e+00  -1.4527438186599055e-03  -8.7940862112061771e-03  0.0000000000000000e+00  -8.2239225215089452e-03  -1.1969375657703632e-03  -9.7485187405571827e-03  -1.2084294554109103e-02  -1.0696912383621656e-02  -5.2853325731348341e-03  -1.2391516692153181e-03  -1.7595307457210323e-02  0.0000000000000000e+00  -1.7653791792391214e-02  -2.5747941508344516e-02  -8.6524899725336363e-03  -1.8179505722804008e-03  -1.2560952732694921e-03  -3.6283386150930976e-03  0.0000000000000000e+00  -3.5567052436214185e-02  -3.6321670958258889e-02  -3.6321670958258612e-02  -3.5567052436213158e-02  0.0000000000000000e+00  -9.7949564108656285e-03  -1.4342159667328463e-02  -1.0925930393398113e-02  -4.7109321826272936e-03  -5.2043406512186589e-03  -6.3066943083566335e-03  -7.0638170844443849e-04  -3.6366177369913828e-03  -4.0387514810071700e-03  -8.9915555867284939e-03  -1.3508553881674233e-03  -7.2569587364743147e-03  -2.3012998011628316e-02  -7.6471363411476550e-03  -1.0638589727395751e-03  -8.0445650114074636e-03  -9.3072688943648778e-03  -8.2387134348669601e-03  -4.3615037959154092e-03  -1.1013796037318583e-03  -1.6361257628313742e-02  -3.4296154883523514e-02  -1.4568067165004549e-02  -2.4078048489725046e-02  -6.6641085600468780e-03  -1.7045411043901831e-03  -1.1164393743657414e-03  -2.4707083093147390e-03  -3.1444068229614243e-02  -3.3348267969398458e-02  -3.3966014497794531e-02  -3.3966014497794281e-02  -3.3348267969397494e-02  -3.1444068229612696e-02  -6.6698516210787666e-03  -1.2747561516068527e-02  -1.0244336531048748e-02  -1.5518680936489463e-04  -4.0083595812628820e-03  -5.2043406512186259e-03  -5.8291251498641201e-04  -2.8009064983182063e-03  -2.0501419453699344e-03  -8.4343035988270962e-03  -1.2441560840007243e-03  -5.5892767271805647e-03  -2.1586766614195924e-02  -7.0431160043925517e-03  -9.1751588182250124e-04  -6.1958875103643668e-03  -6.3377619990255185e-03  -5.6101317713056079e-03  -3.3592104554067232e-03  -9.4987522240574669e-04  -1.5068939575971036e-02  -3.2170649424331739e-02  -1.1220259301752949e-02  -2.2389330535169921e-02  -4.5379084314215350e-03  -1.5939924110412950e-03  -9.6286339009268146e-04  -1.2541753964116188e-03  -2.9495320945604503e-02  -3.1185452746010520e-02  -3.1583802394866738e-02  -3.1583802394866502e-02  -3.1185452746009614e-02  -2.9495320945603053e-02  -3.3857350822579504e-03  -1.0994023122616754e-02  -1.0796761735430522e-03  0.0000000000000000e+00  -2.7294826571453950e-03  -4.0083595812628560e-03  -4.4895657703280861e-04  -1.9072704323190295e-03  0.0000000000000000e+00  -7.9081452435052144e-03  -1.1293466112919145e-03  -3.8060043226010158e-03  -2.0240116296791875e-02  -6.3931843397969888e-03  -7.5714232661957116e-04  -4.2190744523561696e-03  -3.2171604950383308e-03  -2.8478024749712828e-03  -2.2874461469460689e-03  -7.8384554440846311e-04  -1.3678392980374319e-02  -3.0163743247383454e-02  -7.6404081400202233e-03  -2.0620876258134621e-02  -2.3035228741494964e-03  -1.4821974869178244e-03  -7.9456349675766666e-04  0.0000000000000000e+00  -2.7655310163850279e-02  -2.8998255806209031e-02  -2.9089109204174783e-02  -2.9089109204174568e-02  -2.8998255806208184e-02  -2.7655310163848919e-02  0.0000000000000000e+00  -5.5964849215537644e-03  -1.0096533445730152e-03  -7.7794359835341165e-03  -1.3855338489849561e-03  -2.7294826571453773e-03  -3.0571588351270838e-04  -9.6816432822105318e-04  -1.9040120282420577e-02  -7.3952593287971071e-03  -1.0037829541949908e-03  -1.9319953561682821e-03  -1.8927435479604793e-02  -5.6823736832870399e-03  -5.8314758826837553e-04  -2.1416770866171330e-03  0.0000000000000000e+00  0.0000000000000000e+00  -1.1611482696279938e-03  -6.0371428557893505e-04  -1.2157594114329158e-02  -2.8207461645302311e-02  -3.8784068000378980e-03  -1.8718002526747820e-02  0.0000000000000000e+00  -1.3651239334664014e-03  -6.1196920389993109e-04  -2.2431471376246220e-02  -2.5861713990136630e-02  -2.6707785824246037e-02  -2.6404795449455926e-02  -2.6404795449455731e-02  -2.6707785824245260e-02  -2.5861713990135357e-02  0.0000000000000000e+00  -4.8266395541909021e-03  -9.3884113852630527e-04  -7.2973051525826119e-03  0.0000000000000000e+00  -1.3855338489849474e-03  -1.5518680936489130e-04  0.0000000000000000e+00  -1.7860108128247704e-02  -6.8765915799361360e-03  -8.6570384418994148e-04  0.0000000000000000e+00  -1.7599956629243140e-02  -4.9007135667993766e-03  -3.9709292454077015e-04  0.0000000000000000e+00  -2.9878478869095438e-02  -1.9890227321764854e-02  0.0000000000000000e+00  -4.1109776679253357e-04  -1.0485210888360276e-02  -2.6229126609006722e-02  0.0000000000000000e+00  -1.6636886926534266e-02  -1.1334687343738012e-02  -1.2391516692152203e-03  -4.1671893324143070e-04  -2.1041280113411071e-02  -2.4047898357638420e-02  -2.4243218197134934e-02  -2.3469042467705571e-02  -2.3469042467705398e-02  -2.4243218197134226e-02  -7.8489308894457083e-04  -9.8479533648201702e-03  -3.9829862067947558e-03  -8.6468538722880742e-04  -6.8420763322804001e-03  -1.4617441025536033e-02  0.0000000000000000e+00  0.0000000000000000e+00  -1.5586037766631535e-02  -1.6745938474699001e-02  -6.3334338570261023e-03  -7.1438656892947570e-04  -2.3012998011628649e-02  -1.6209798110312482e-02  -4.0441127457022073e-03  -2.0157141746380354e-04  -2.6448169496988607e-02  -2.8026759043234775e-02  -1.8657529752589625e-02  -1.8720381984653801e-03  -2.0868052399676334e-04  -8.6524899725340838e-03  -2.4157380378732659e-02  -3.4296154883522945e-02  -1.4348337862745079e-02  -1.0632219679092569e-02  -1.1013796037317716e-03  -2.1153392786996133e-04  -1.9728658957601723e-02  -2.2148439656205967e-02  -2.1547794926551338e-02  -2.0240670753413653e-02  -2.0240670753413504e-02  -9.8548734252233553e-04  -6.9762665922974611e-04  -9.2376260931513760e-03  -3.0676779238701843e-03  -7.8489308894455565e-04  -6.3983307421160871e-03  -1.3711524580829368e-02  -7.7794359835339708e-03  -1.6219744401564757e-03  -1.4620092503302325e-02  -1.5659873954159818e-02  -5.7489909475616444e-03  -5.5021729748291036e-04  -2.1586766614196236e-02  -1.4713974236046756e-02  -3.1147573070849912e-03  0.0000000000000000e+00  -2.4809043220518304e-02  -2.6278361766518082e-02  -1.7493614432970733e-02  -1.7560185623234491e-03  0.0000000000000000e+00  -6.6641085600472223e-03  -2.1928161602266967e-02  -3.2170649424331205e-02  -1.1840376965402924e-02  -9.9689484138098926e-03  -9.4987522240567188e-04  0.0000000000000000e+00  -1.8449148910192819e-02  -2.0104603910071062e-02  -1.8583707587156696e-02  -1.6702782862068260e-02  -2.6680572344699206e-03  -9.2441172825567797e-04  -6.0166202083887857e-04  -8.6613539569518980e-03  -2.0889277823406727e-03  -6.9762665922973256e-04  -5.9495827462806138e-03  -1.2856156601971220e-02  -7.2973051525824749e-03  -1.5214525146248657e-03  -1.3708045203124387e-02  -1.4561566077433641e-02  -5.1098033670834301e-03  -3.7466912353902379e-04  -2.0240116296792166e-02  -1.3078036785989282e-02  -2.1209863732402027e-03  -1.0783840001602218e-02  -2.3261377165453290e-02  -2.4574068130444545e-02  -1.6359059089873836e-02  -1.6464726077771500e-03  -1.1334687343738780e-02  -4.5379084314217692e-03  -1.9490132270383417e-02  -3.0163743247382954e-02  -9.1194046730825908e-03  -9.3224082873378904e-03  -7.8384554440840153e-04  -1.1647803439591129e-02  -1.7155214768304245e-02  -1.7869322406418399e-02  -1.5335442010887851e-02  -3.4138711928949472e-03  -2.0549255892081159e-03  -8.6674402055697661e-04  -4.9649689048620628e-04  -8.0996183906419210e-03  -1.0603768237696142e-03  -6.0166202083886686e-04  -5.4796461826255400e-03  -1.2022365436609410e-02  -6.8420763322802709e-03  -1.4265395270360998e-03  -1.2819004462675334e-02  -1.3411399315210966e-02  -4.4069052970583987e-03  -1.9018869802080269e-04  -1.8927435479605067e-02  -1.1279038633574047e-02  -1.0766503335960203e-03  -1.0115511121227702e-02  -2.1752751269302487e-02  -2.2850561755496771e-02  -1.5211713746812202e-02  -1.5396899699424245e-03  -1.0632219679093292e-02  -2.3035228741496152e-03  -1.6809094396081706e-02  -2.8207461645301846e-02  -6.2098363168374519e-03  -8.6685796242201522e-03  -6.0371428557888767e-04  -1.0925930393399071e-02  -1.5800184840865799e-02  -1.5411241081207696e-02  -8.6674402055698702e-04  -3.0988425911043093e-03  -1.3992965560491676e-03  -8.1053099131775787e-04  -3.8239965471545330e-04  -7.5315503012716870e-03  0.0000000000000000e+00  -4.9649689048619663e-04  -4.9739899414607738e-03  -1.1179174827632563e-02  -6.3983307421159675e-03  -1.3340207368947488e-03  -1.1919941442477497e-02  -1.2173808868588380e-02  -3.6366177369912861e-03  0.0000000000000000e+00  -1.7599956629243390e-02  -9.3075637405787854e-03  0.0000000000000000e+00  -9.4844737590528902e-03  -2.0227118423886511e-02  -2.1045676450610597e-02  -1.4010194112523480e-02  -1.4317035566000069e-03  -9.9689484138105675e-03  0.0000000000000000e+00  -1.3871015305083717e-02  -2.6229126609006288e-02  -3.1522231478959863e-03  -7.9838790840145238e-03  -4.1109776679250116e-04  -1.0244336531049647e-02  -1.4342159667329392e-02  -7.2040313861515093e-04  -8.1053099131776763e-04  -2.7543053121004330e-03  -7.1030777136420599e-04  -7.5368426479231862e-04  -2.6039410998036509e-04  -6.9366596982646809e-03  -6.3875458789150342e-03  -3.8239965471544582e-04  -4.4209689635178974e-03  -1.0296171224349428e-02  -5.9495827462805019e-03  -1.2404589695819051e-03  -1.0978427296136826e-02  -1.0820293528784691e-02  -2.8009064983181313e-03  -9.9990890387242903e-03  -1.6209798110312711e-02  -7.1686434071197526e-03  -1.7663243732225940e-03  -8.8693544295954628e-03  -1.8629449657836014e-02  -1.9103602584504411e-02  -1.2717347483960150e-02  -1.3186183406691987e-03  -9.3224082873385235e-03  -2.9275391408150889e-02  -1.0683393118580155e-02  -2.4157380378732256e-02  0.0000000000000000e+00  -7.2471347481599009e-03  -2.0868052399674691e-04  -9.5799359983684568e-03  0.0000000000000000e+00  -6.7575612762672615e-04  -7.5368426479232762e-04  -2.3754265668621179e-03  0.0000000000000000e+00  -6.9415340211143213e-04  -1.3218067259362286e-04  -6.2965517145804123e-03  -5.9916774883452687e-03  -2.6039410998036005e-04  -3.8128260803464487e-03  -9.3460508942811871e-03  -5.4796461826254360e-03  -1.1424794892755160e-03  -9.9653490616210833e-03  -9.3318676751635958e-03  -1.9072704323189788e-03  -9.3793951281114854e-03  -1.4713974236046964e-02  -4.8814702020391898e-03  -1.6568563552847649e-03  -8.2473007745011758e-03  -1.6910342771187359e-02  -1.6979614979412465e-02  -1.1303400124759506e-02  -1.1969375657702927e-03  -8.6685796242207402e-03  -2.7461047949843997e-02  -7.2748304251296081e-03  -2.1928161602266599e-02  -2.1393324835954162e-02  -6.4413796917807235e-03  0.0000000000000000e+00  0.0000000000000000e+00  -3.1927306665254169e-03  -6.3360033746045726e-04  -6.9415340211144037e-04  -1.9602232867897778e-03  -4.8466619040779544e-03  -6.3009762398175367e-04  0.0000000000000000e+00  -5.5964849215537835e-03  -5.6178978234390524e-03  -1.3218067259362031e-04  -3.1463782444125241e-03  -8.3069329494746165e-03  -4.9739899414606810e-03  -1.0370526305147015e-03  -8.8573759558328320e-03  -7.7007408190523357e-03  -9.6816432822102749e-04  -8.7942789941360035e-03  -1.3078036785989466e-02  -2.4779209276274412e-03  -1.5534964507370474e-03  -7.5958755652590967e-03  -1.5030207425773927e-02  -1.4643920679377325e-02  -9.7485187405568358e-03  -1.0638589727395124e-03  -7.9838790840150668e-03  -2.5747941508345432e-02  -3.6928330624325240e-03  -1.9490132270383091e-02  -2.0067472743102523e-02  -5.5553116714695261e-03  -7.2040313861515212e-04  -3.1927306665254116e-03  -2.9948610661438015e-03  -5.9250793480072385e-04  -6.3009762398176115e-04  -1.5097550909121495e-03  -4.5462898544717878e-03  -5.6004175167101542e-04  -6.3875458789150749e-03  -4.8266395541909186e-03  -5.2535468188494991e-03  0.0000000000000000e+00  -2.4233262631097783e-03  -7.1642417892576636e-03  -4.4209689635178150e-03  -9.2175045526803382e-04  -7.6389665538298358e-03  -5.9310756757712706e-03  0.0000000000000000e+00  -8.2239225215092419e-03  -1.1279038633574205e-02  0.0000000000000000e+00  -1.4527438186598312e-03  -6.8949358040638117e-03  -1.2962671156235926e-02  -1.2084294554109034e-02  -8.0445650114071756e-03  -9.1751588182244713e-04  -7.2471347481603944e-03  -2.4078048489725903e-02  0.0000000000000000e+00  -1.6809094396081421e-02  -1.8815600750322251e-02  -3.8577934198861873e-04  -6.7575612762672712e-04  -2.9948610661437967e-03  -2.8080322243175609e-03  -5.5095229177835252e-04  -5.6004175167102214e-04  -1.0280640380779804e-03  -4.2626780109310744e-03  -4.8300311865455880e-04  -5.9916774883453077e-03  -3.9829862067947697e-03  -4.8850884347793359e-03  -1.4412541157093029e-03  -1.6501580942693628e-03  -5.9119965160811016e-03  -3.8128260803463767e-03  -7.9495563176733980e-04  -6.3037436453385731e-03  -4.0387514810071310e-03  -1.6219744401564243e-03  -7.6471363411479308e-03  -9.3075637405789155e-03  -1.7942866858364707e-02  -1.3508553881673541e-03  -6.1283391309517425e-03  -1.0696912383621894e-02  -9.3072688943648257e-03  -6.1958875103641457e-03  -7.5714232661952660e-04  -6.4413796917811607e-03  -2.2389330535170712e-02  -3.6019619101815559e-02  -1.3871015305083483e-02  -1.0326687021433253e-03  -3.6075946885795977e-04  -6.3360033746045824e-04  -2.8080322243175565e-03  -2.6259161741499495e-03  -5.0743451283863340e-04  -4.8300311865456455e-04  -5.2186355533429744e-04  -3.9862203279442763e-03  -3.9857850122028589e-04  -5.6178978234390879e-03  -3.0676779238701952e-03  -4.4992325235179128e-03  -1.3519323389262602e-03  -8.3764954131559455e-04  -4.5533929209798027e-03  -3.1463782444124642e-03  -6.5600451013456650e-04  -4.8551147843677658e-03  -2.0501419453699144e-03  -1.5214525146248175e-03  -7.0431160043928059e-03  -7.1686434071198523e-03  -1.6830857025468618e-02  -1.2441560840006605e-03  -5.2853325731351056e-03  -8.2387134348671440e-03  -6.3377619990254812e-03  -4.2190744523560187e-03  -5.8314758826834127e-04  -5.5553116714699043e-03  -2.0620876258135350e-02  -3.3787301884362762e-02  -1.7740341817733279e-04  -9.3737507242869775e-04  -3.3545754322240906e-04  -5.9250793480072471e-04  -2.6259161741499456e-03  -2.4417471044541200e-03  -4.6060896610665170e-04  -3.9857850122029055e-04  0.0000000000000000e+00  -3.7066460990990797e-03  -3.0698335511101182e-04  -5.2535468188495329e-03  -2.0889277823406801e-03  -4.0840478692272869e-03  -1.2675945524544968e-03  0.0000000000000000e+00  -3.1006217773175094e-03  -2.4233262631097327e-03  -5.0525170041162146e-04  -3.3060785425360548e-03  0.0000000000000000e+00  -1.4265395270360544e-03  -6.3931843397972195e-03  -4.8814702020392575e-03  -1.5780895289160025e-02  -1.1293466112918568e-03  -4.3615037959156338e-03  -5.6101317713057328e-03  -3.2171604950383117e-03  -2.1416770866170562e-03  -3.9709292454074679e-04  -4.5842929668734479e-03  -1.8718002526748483e-02  -4.3863084084741954e-04  -1.3663530861174233e-04  -8.3315530412302421e-04  -3.0896093466399144e-04  -5.5095229177835328e-04  -2.4417471044541166e-03  -2.2488821099636