<?xml version="1.0"?>
<VTKFile type="UnstructuredGrid"  version="0.1"  >
<UnstructuredGrid>
<Piece  NumberOfPoints="1089" NumberOfCells="2048">
<Points>
<DataArray  type="Float64"  NumberOfComponents="3"  format="ascii">0 0 0  0.03125 0 0  0.0625 0 0  0.09375 0 0  0.125 0 0  0.15625 0 0  0.1875 0 0  0.21875 0 0  0.25 0 0  0.28125 0 0  0.3125 0 0  0.34375 0 0  0.375 0 0  0.40625 0 0  0.4375 0 0  0.46875 0 0  0.5 0 0  0.53125 0 0  0.5625 0 0  0.59375 0 0  0.625 0 0  0.65625 0 0  0.6875 0 0  0.71875 0 0  0.75 0 0  0.78125 0 0  0.8125 0 0  0.84375 0 0  0.875 0 0  0.90625 0 0  0.9375 0 0  0.96875 0 0  1 0 0  0 0.03125 0  0.03125 0.03125 0  0.0625 0.03125 0  0.09375 0.03125 0  0.125 0.03125 0  0.15625 0.03125 0  0.1875 0.03125 0  0.21875 0.03125 0  0.25 0.03125 0  0.28125 0.03125 0  0.3125 0.03125 0  0.34375 0.03125 0  0.375 0.03125 0  0.40625 0.03125 0  0.4375 0.03125 0  0.46875 0.03125 0  0.5 0.03125 0  0.53125 0.03125 0  0.5625 0.03125 0  0.59375 0.03125 0  0.625 0.03125 0  0.65625 0.03125 0  0.6875 0.03125 0  0.71875 0.03125 0  0.75 0.03125 0  0.78125 0.03125 0  0.8125 0.03125 0  0.84375 0.03125 0  0.875 0.03125 0  0.90625 0.03125 0  0.9375 0.03125 0  0.96875 0.03125 0  1 0.03125 0  0 0.0625 0  0.03125 0.0625 0  0.0625 0.0625 0  0.09375 0.0625 0  0.125 0.0625 0  0.15625 0.0625 0  0.1875 0.0625 0  0.21875 0.0625 0  0.25 0.0625 0  0.28125 0.0625 0  0.3125 0.0625 0  0.34375 0.0625 0  0.375 0.0625 0  0.40625 0.0625 0  0.4375 0.0625 0  0.46875 0.0625 0  0.5 0.0625 0  0.53125 0.0625 0  0.5625 0.0625 0  0.59375 0.0625 0  0.625 0.0625 0  0.65625 0.0625 0  0.6875 0.0625 0  0.71875 0.0625 0  0.75 0.0625 0  0.78125 0.0625 0  0.8125 0.0625 0  0.84375 0.0625 0  0.875 0.0625 0  0.90625 0.0625 0  0.9375 0.0625 0  0.96875 0.0625 0  1 0.0625 0  0 0.09375 0  0.03125 0.09375 0  0.0625 0.09375 0  0.09375 0.09375 0  0.125 0.09375 0  0.15625 0.09375 0  0.1875 0.09375 0  0.21875 0.09375 0  0.25 0.09375 0  0.28125 0.09375 0  0.3125 0.09375 0  0.34375 0.09375 0  0.375 0.09375 0  0.40625 0.09375 0  0.4375 0.09375 0  0.46875 0.09375 0  0.5 0.09375 0  0.53125 0.09375 0  0.5625 0.09375 0  0.59375 0.09375 0  0.625 0.09375 0  0.65625 0.09375 0  0.6875 0.09375 0  0.71875 0.09375 0  0.75 0.09375 0  0.78125 0.09375 0  0.8125 0.09375 0  0.84375 0.09375 0  0.875 0.09375 0  0.90625 0.09375 0  0.9375 0.09375 0  0.96875 0.09375 0  1 0.09375 0  0 0.125 0  0.03125 0.125 0  0.0625 0.125 0  0.09375 0.125 0  0.125 0.125 0  0.15625 0.125 0  0.1875 0.125 0  0.21875 0.125 0  0.25 0.125 0  0.28125 0.125 0  0.3125 0.125 0  0.34375 0.125 0  0.375 0.125 0  0.40625 0.125 0  0.4375 0.125 0  0.46875 0.125 0  0.5 0.125 0  0.53125 0.125 0  0.5625 0.125 0  0.59375 0.125 0  0.625 0.125 0  0.65625 0.125 0  0.6875 0.125 0  0.71875 0.125 0  0.75 0.125 0  0.78125 0.125 0  0.8125 0.125 0  0.84375 0.125 0  0.875 0.125 0  0.90625 0.125 0  0.9375 0.125 0  0.96875 0.125 0  1 0.125 0  0 0.15625 0  0.03125 0.15625 0  0.0625 0.15625 0  0.09375 0.15625 0  0.125 0.15625 0  0.15625 0.15625 0  0.1875 0.15625 0  0.21875 0.15625 0  0.25 0.15625 0  0.28125 0.15625 0  0.3125 0.15625 0  0.34375 0.15625 0  0.375 0.15625 0  0.40625 0.15625 0  0.4375 0.15625 0  0.46875 0.15625 0  0.5 0.15625 0  0.53125 0.15625 0  0.5625 0.15625 0  0.59375 0.15625 0  0.625 0.15625 0  0.65625 0.15625 0  0.6875 0.15625 0  0.71875 0.15625 0  0.75 0.15625 0  0.78125 0.15625 0  0.8125 0.15625 0  0.84375 0.15625 0  0.875 0.15625 0  0.90625 0.15625 0  0.9375 0.15625 0  0.96875 0.15625 0  1 0.15625 0  0 0.1875 0  0.03125 0.1875 0  0.0625 0.1875 0  0.09375 0.1875 0  0.125 0.1875 0  0.15625 0.1875 0  0.1875 0.1875 0  0.21875 0.1875 0  0.25 0.1875 0  0.28125 0.1875 0  0.3125 0.1875 0  0.34375 0.1875 0  0.375 0.1875 0  0.40625 0.1875 0  0.4375 0.1875 0  0.46875 0.1875 0  0.5 0.1875 0  0.53125 0.1875 0  0.5625 0.1875 0  0.59375 0.1875 0  0.625 0.1875 0  0.65625 0.1875 0  0.6875 0.1875 0  0.71875 0.1875 0  0.75 0.1875 0  0.78125 0.1875 0  0.8125 0.1875 0  0.84375 0.1875 0  0.875 0.1875 0  0.90625 0.1875 0  0.9375 0.1875 0  0.96875 0.1875 0  1 0.1875 0  0 0.21875 0  0.03125 0.21875 0  0.0625 0.21875 0  0.09375 0.21875 0  0.125 0.21875 0  0.15625 0.21875 0  0.1875 0.21875 0  0.21875 0.21875 0  0.25 0.21875 0  0.28125 0.21875 0  0.3125 0.21875 0  0.34375 0.21875 0  0.375 0.21875 0  0.40625 0.21875 0  0.4375 0.21875 0  0.46875 0.21875 0  0.5 0.21875 0  0.53125 0.21875 0  0.5625 0.21875 0  0.59375 0.21875 0  0.625 0.21875 0  0.65625 0.21875 0  0.6875 0.21875 0  0.71875 0.21875 0  0.75 0.21875 0  0.78125 0.21875 0  0.8125 0.21875 0  0.84375 0.21875 0  0.875 0.21875 0  0.90625 0.21875 0  0.9375 0.21875 0  0.96875 0.21875 0  1 0.21875 0  0 0.25 0  0.03125 0.25 0  0.0625 0.25 0  0.09375 0.25 0  0.125 0.25 0  0.15625 0.25 0  0.1875 0.25 0  0.21875 0.25 0  0.25 0.25 0  0.28125 0.25 0  0.3125 0.25 0  0.34375 0.25 0  0.375 0.25 0  0.40625 0.25 0  0.4375 0.25 0  0.46875 0.25 0  0.5 0.25 0  0.53125 0.25 0  0.5625 0.25 0  0.59375 0.25 0  0.625 0.25 0  0.65625 0.25 0  0.6875 0.25 0  0.71875 0.25 0  0.75 0.25 0  0.78125 0.25 0  0.8125 0.25 0  0.84375 0.25 0  0.875 0.25 0  0.90625 0.25 0  0.9375 0.25 0  0.96875 0.25 0  1 0.25 0  0 0.28125 0  0.03125 0.28125 0  0.0625 0.28125 0  0.09375 0.28125 0  0.125 0.28125 0  0.15625 0.28125 0  0.1875 0.28125 0  0.21875 0.28125 0  0.25 0.28125 0  0.28125 0.28125 0  0.3125 0.28125 0  0.34375 0.28125 0  0.375 0.28125 0  0.40625 0.28125 0  0.4375 0.28125 0  0.46875 0.28125 0  0.5 0.28125 0  0.53125 0.28125 0  0.5625 0.28125 0  0.59375 0.28125 0  0.625 0.28125 0  0.65625 0.28125 0  0.6875 0.28125 0  0.71875 0.28125 0  0.75 0.28125 0  0.78125 0.28125 0  0.8125 0.28125 0  0.84375 0.28125 0  0.875 0.28125 0  0.90625 0.28125 0  0.9375 0.28125 0  0.96875 0.28125 0  1 0.28125 0  0 0.3125 0  0.03125 0.3125 0  0.0625 0.3125 0  0.09375 0.3125 0  0.125 0.3125 0  0.15625 0.3125 0  0.1875 0.3125 0  0.21875 0.3125 0  0.25 0.3125 0  0.28125 0.3125 0  0.3125 0.3125 0  0.34375 0.3125 0  0.375 0.3125 0  0.40625 0.3125 0  0.4375 0.3125 0  0.46875 0.3125 0  0.5 0.3125 0  0.53125 0.3125 0  0.5625 0.3125 0  0.59375 0.3125 0  0.625 0.3125 0  0.65625 0.3125 0  0.6875 0.3125 0  0.71875 0.3125 0  0.75 0.3125 0  0.78125 0.3125 0  0.8125 0.3125 0  0.84375 0.3125 0  0.875 0.3125 0  0.90625 0.3125 0  0.9375 0.3125 0  0.96875 0.3125 0  1 0.3125 0  0 0.34375 0  0.03125 0.34375 0  0.0625 0.34375 0  0.09375 0.34375 0  0.125 0.34375 0  0.15625 0.34375 0  0.1875 0.34375 0  0.21875 0.34375 0  0.25 0.34375 0  0.28125 0.34375 0  0.3125 0.34375 0  0.34375 0.34375 0  0.375 0.34375 0  0.40625 0.34375 0  0.4375 0.34375 0  0.46875 0.34375 0  0.5 0.34375 0  0.53125 0.34375 0  0.5625 0.34375 0  0.59375 0.34375 0  0.625 0.34375 0  0.65625 0.34375 0  0.6875 0.34375 0  0.71875 0.34375 0  0.75 0.34375 0  0.78125 0.34375 0  0.8125 0.34375 0  0.84375 0.34375 0  0.875 0.34375 0  0.90625 0.34375 0  0.9375 0.34375 0  0.96875 0.34375 0  1 0.34375 0  0 0.375 0  0.03125 0.375 0  0.0625 0.375 0  0.09375 0.375 0  0.125 0.375 0  0.15625 0.375 0  0.1875 0.375 0  0.21875 0.375 0  0.25 0.375 0  0.28125 0.375 0  0.3125 0.375 0  0.34375 0.375 0  0.375 0.375 0  0.40625 0.375 0  0.4375 0.375 0  0.46875 0.375 0  0.5 0.375 0  0.53125 0.375 0  0.5625 0.375 0  0.59375 0.375 0  0.625 0.375 0  0.65625 0.375 0  0.6875 0.375 0  0.71875 0.375 0  0.75 0.375 0  0.78125 0.375 0  0.8125 0.375 0  0.84375 0.375 0  0.875 0.375 0  0.90625 0.375 0  0.9375 0.375 0  0.96875 0.375 0  1 0.375 0  0 0.40625 0  0.03125 0.40625 0  0.0625 0.40625 0  0.09375 0.40625 0  0.125 0.40625 0  0.15625 0.40625 0  0.1875 0.40625 0  0.21875 0.40625 0  0.25 0.40625 0  0.28125 0.40625 0  0.3125 0.40625 0  0.34375 0.40625 0  0.375 0.40625 0  0.40625 0.40625 0  0.4375 0.40625 0  0.46875 0.40625 0  0.5 0.40625 0  0.53125 0.40625 0  0.5625 0.40625 0  0.59375 0.40625 0  0.625 0.40625 0  0.65625 0.40625 0  0.6875 0.40625 0  0.71875 0.40625 0  0.75 0.40625 0  0.78125 0.40625 0  0.8125 0.40625 0  0.84375 0.40625 0  0.875 0.40625 0  0.90625 0.40625 0  0.9375 0.40625 0  0.96875 0.40625 0  1 0.40625 0  0 0.4375 0  0.03125 0.4375 0  0.0625 0.4375 0  0.09375 0.4375 0  0.125 0.4375 0  0.15625 0.4375 0  0.1875 0.4375 0  0.21875 0.4375 0  0.25 0.4375 0  0.28125 0.4375 0  0.3125 0.4375 0  0.34375 0.4375 0  0.375 0.4375 0  0.40625 0.4375 0  0.4375 0.4375 0  0.46875 0.4375 0  0.5 0.4375 0  0.53125 0.4375 0  0.5625 0.4375 0  0.59375 0.4375 0  0.625 0.4375 0  0.65625 0.4375 0  0.6875 0.4375 0  0.71875 0.4375 0  0.75 0.4375 0  0.78125 0.4375 0  0.8125 0.4375 0  0.84375 0.4375 0  0.875 0.4375 0  0.90625 0.4375 0  0.9375 0.4375 0  0.96875 0.4375 0  1 0.4375 0  0 0.46875 0  0.03125 0.46875 0  0.0625 0.46875 0  0.09375 0.46875 0  0.125 0.46875 0  0.15625 0.46875 0  0.1875 0.46875 0  0.21875 0.46875 0  0.25 0.46875 0  0.28125 0.46875 0  0.3125 0.46875 0  0.34375 0.46875 0  0.375 0.46875 0  0.40625 0.46875 0  0.4375 0.46875 0  0.46875 0.46875 0  0.5 0.46875 0  0.53125 0.46875 0  0.5625 0.46875 0  0.59375 0.46875 0  0.625 0.46875 0  0.65625 0.46875 0  0.6875 0.46875 0  0.71875 0.46875 0  0.75 0.46875 0  0.78125 0.46875 0  0.8125 0.46875 0  0.84375 0.46875 0  0.875 0.46875 0  0.90625 0.46875 0  0.9375 0.46875 0  0.96875 0.46875 0  1 0.46875 0  0 0.5 0  0.03125 0.5 0  0.0625 0.5 0  0.09375 0.5 0  0.125 0.5 0  0.15625 0.5 0  0.1875 0.5 0  0.21875 0.5 0  0.25 0.5 0  0.28125 0.5 0  0.3125 0.5 0  0.34375 0.5 0  0.375 0.5 0  0.40625 0.5 0  0.4375 0.5 0  0.46875 0.5 0  0.5 0.5 0  0.53125 0.5 0  0.5625 0.5 0  0.59375 0.5 0  0.625 0.5 0  0.65625 0.5 0  0.6875 0.5 0  0.71875 0.5 0  0.75 0.5 0  0.78125 0.5 0  0.8125 0.5 0  0.84375 0.5 0  0.875 0.5 0  0.90625 0.5 0  0.9375 0.5 0  0.96875 0.5 0  1 0.5 0  0 0.53125 0  0.03125 0.53125 0  0.0625 0.53125 0  0.09375 0.53125 0  0.125 0.53125 0  0.15625 0.53125 0  0.1875 0.53125 0  0.21875 0.53125 0  0.25 0.53125 0  0.28125 0.53125 0  0.3125 0.53125 0  0.34375 0.53125 0  0.375 0.53125 0  0.40625 0.53125 0  0.4375 0.53125 0  0.46875 0.53125 0  0.5 0.53125 0  0.53125 0.53125 0  0.5625 0.53125 0  0.59375 0.53125 0  0.625 0.53125 0  0.65625 0.53125 0  0.6875 0.53125 0  0.71875 0.53125 0  0.75 0.53125 0  0.78125 0.531
[...]
<PointData  Scalars="Eigenfunction"> 
<DataArray  type="Float64"  Name="Eigenfunction"  format="ascii">0.0000000000000000e+00  0.0000000000000000e+00  0.0000000000000000e+00  0.0000000000000000e+00  0.0000000000000000e+00  0.0000000000000000e+00  0.0000000000000000e+00  0.0000000000000000e+00  0.0000000000000000e+00  0.0000000000000000e+00  0.0000000000000000e+00  0.0000000000000000e+00  0.0000000000000000e+00  0.0000000000000000e+00  0.0000000000000000e+00  0.0000000000000000e+00  0.0000000000000000e+00  0.0000000000000000e+00  0.0000000000000000e+00  0.0000000000000000e+00  0.0000000000000000e+00  0.0000000000000000e+00  0.0000000000000000e+00  0.0000000000000000e+00  0.0000000000000000e+00  0.0000000000000000e+00  0.0000000000000000e+00  0.0000000000000000e+00  0.0000000000000000e+00  0.0000000000000000e+00  0.0000000000000000e+00  0.0000000000000000e+00  0.0000000000000000e+00  0.0000000000000000e+00  2.3301699274600826e-01  4.4048172540292296e-01  6.0492742757514839e-01  7.1348234354254281e-01  7.5983964271568172e-01  7.4499673787241982e-01  6.7686994405668532e-01  5.6891937131491976e-01  4.3802309659321670e-01  3.0193487025003402e-01  1.7671276354183968e-01  7.4503768824253649e-02  2.0101427738015761e-03  -4.0144272592950080e-02  -5.7069207672322438e-02  -5.8356689859726182e-02  -5.6134107406877284e-02  -6.2738055630240222e-02  -8.8382039469667703e-02  -1.3919016114080759e-01  -2.1591066072983806e-01  -3.1351662458993296e-01  -4.2176274604547881e-01  -5.2661801988643708e-01  -6.1235762434110097e-01  -6.6399409573106982e-01  -6.6967432699980667e-01  -6.2267373917882185e-01  -5.2268299572086174e-01  -3.7620063125361058e-01  -1.9601403145789908e-01  0.0000000000000000e+00  0.0000000000000000e+00  4.4048172539067054e-01  8.3433687227671749e-01  1.1462404260206056e+00  1.3507573674867752e+00  1.4355214319454395e+00  1.4025013333359488e+00  1.2672010213606233e+00  1.0559597078798377e+00  8.0178968476175794e-01  5.3939632085352729e-01  3.0013585102058843e-01  1.0766528981536908e-01  -2.5075185718977586e-02  -9.7116566719761266e-02  -1.1879448763724648e-01  -1.0929969769370151e-01  -9.2856052521883656e-02  -9.4145032749737914e-02  -1.3370845195792810e-01  -2.2406083933715892e-01  -3.6713020376141575e-01  -5.5343795066613166e-01  -7.6315763765356004e-01  -9.6889970789306445e-01  -1.1398003395764482e+00  -1.2462885499333347e+00  -1.2647982798977579e+00  -1.1816983031229469e+00  -9.9583224984319041e-01  -7.1927641720676716e-01  -3.7620063127476050e-01  0.0000000000000000e+00  0.0000000000000000e+00  6.0492742752801243e-01  1.1462404259631123e+00  1.5728681213594171e+00  1.8483063476099173e+00  1.9550171178768858e+00  1.8961582566244672e+00  1.6943840886058001e+00  1.3879222387994257e+00  1.0245416228155713e+00  6.5433574063746514e-01  3.2241251952846156e-01  6.2583962035056701e-02  -1.0701374207899181e-01  -1.8574111602311433e-01  -1.8948434973519013e-01  -1.4708810932315702e-01  -9.4784721920853909e-02  -6.9516604112983812e-02  -1.0221455473798507e-01  -2.1209661744283292e-01  -4.0289055758917824e-01  -6.6158254248036752e-01  -9.5990155171731539e-01  -1.2583237591973309e+00  -1.5119889714657373e+00  -1.6776224926697725e+00  -1.7203965277462869e+00  -1.6196700180365753e+00  -1.3727137882241980e+00  -9.9583224994510844e-01  -5.2268299580345490e-01  0.0000000000000000e+00  0.0000000000000000e+00  7.1348234343049222e-01  1.3507573673116076e+00  1.8483063474619050e+00  2.1609656824850250e+00  2.2674621191785200e+00  2.1725592710382080e+00  1.9055075228281639e+00  1.5150527162540723e+00  1.0617758906156745e+00  6.0893117207668412e-01  2.1316474871519353e-01  -8.3496175755023300e-02  -2.5919938250463925e-01  -3.1456563414384386e-01  -2.7142775235319172e-01  -1.6825537500940702e-01  -5.3015953553544194e-02  2.5388012731662503e-02  2.5751811244274902e-02  -7.8087824530303385e-02  -2.9235423997375620e-01  -6.0165282828080924e-01  -9.7078887197047969e-01  -1.3498144654477027e+00  -1.6815363489592732e+00  -1.9103329642061875e+00  -1.9909223352690419e+00  -1.8957242376017052e+00  -1.6196700183032595e+00  -1.1816983034362849e+00  -6.2267373937743109e-01  0.0000000000000000e+00  0.0000000000000000e+00  7.5983964250524372e-01  1.4355214315852591e+00  1.9550171174790381e+00  2.2674621188936741e+00  2.3496155102993797e+00  2.2083433403831907e+00  1.8787794087346810e+00  1.4184640419467276e+00  8.9836233289136291e-01  3.9212632264004377e-01  -3.4778938441922667e-02  -3.3445556108439450e-01  -4.8306578652938442e-01  -4.8349091374506153e-01  -3.6379801836677478e-01  -1.7179747311661192e-01  3.3429605579338113e-02  1.9169453203671100e-01  2.5196092715725366e-01  1.8109748535680587e-01  -3.0244087935288520e-02  -3.6554779680209665e-01  -7.8448315878483998e-01  -1.2287816114435099e+00  -1.6310426103025559e+00  -1.9251174942531266e+00  -2.0564715288944275e+00  -1.9909223357879655e+00  -1.7203965284675795e+00  -1.2647982805469411e+00  -6.6967432737632882e-01  0.0000000000000000e+00  0.0000000000000000e+00  7.4499673753124518e-01  1.4025013327252640e+00  1.8961582558768513e+00  2.1725592703327377e+00  2.2083433399257206e+00  2.0129054849127881e+00  1.6263352233524331e+00  1.1129161534061378e+00  5.5118118527806703e-01  2.2031068861100133e-02  -4.0329097647318263e-01  -6.7356177352627400e-01  -7.6473039287925559e-01  -6.8280578418852755e-01  -4.6207771887083415e-01  -1.5898095984468721e-01  1.5742381356583340e-01  4.1686463781214367e-01  5.5939443748611628e-01  5.4525994889959739e-01  3.6157372236320046e-01  2.4753028141392065e-02  -4.2165802792113644e-01  -9.1345523956295460e-01  -1.3755401930279330e+00  -1.7334852970131589e+00  -1.9251174950928742e+00  -1.9103329654970675e+00  -1.6776224940325251e+00  -1.2462885510412636e+00  -6.6399409634641371e-01  0.0000000000000000e+00  0.0000000000000000e+00  6.7686994355829944e-01  1.2672010204451702e+00  1.6943840874241560e+00  1.9055075215851776e+00  1.8787794076677642e+00  1.6263352227063208e+00  1.1920263957160047e+00  6.4453542342354175e-01  6.6863772014399539e-02  -4.5621727136973911e-01  -8.5085835599561976e-01  -1.0650539915103521e+00  -1.0761536315034439e+00  -8.9384096581698025e-01  -5.5815047462475842e-01  -1.3284558299298024e-01  3.0481148508002898e-01  6.7631931783571009e-01  9.1433963392094286e-01  9.7333567429782453e-01  8.3681157270372530e-01  5.2003941632374495e-01  6.7853292066157561e-02  -4.5215281363149235e-01  -9.5997979486800689e-01  -1.3755401942197769e+00  -1.6310426122670398e+00  -1.6815363512426464e+00  -1.5119889736300922e+00  -1.1398003412470850e+00  -6.1235762524639237e-01  0.0000000000000000e+00  0.0000000000000000e+00  5.6891937064314879e-01  1.0559597066253597e+00  1.3879222371281297e+00  1.5150527143924359e+00  1.4184640401594200e+00  1.1129161519694986e+00  6.4453542259733143e-01  8.3816409064353684e-02  -4.8503977083686184e-01  -9.7684197547199092e-01  -1.3182597973958472e+00  -1.4588657542260948e+00  -1.3786983948284171e+00  -1.0912019208149648e+00  -6.4109862572994192e-01  -9.7519656737193108e-02  4.5655954972649598e-01  9.3697017892429568e-01  1.2711599979202015e+00  1.4092101500695160e+00  1.3313795050988715e+00  1.0510270377884428e+00  6.1246885199935641e-01  8.4101351026475979e-02  -4.5215281515941952e-01  -9.1345524221814556e-01  -1.2287816147434696e+00  -1.3498144688798119e+00  -1.2583237622722439e+00  -9.6889971019482246e-01  -5.2661802111462064e-01  0.0000000000000000e+00  0.0000000000000000e+00  4.3802309574586501e-01  8.0178968316131816e-01  1.0245416206384841e+00  1.0617758881042267e+00  8.9836233033107060e-01  5.5118118297076502e-01  6.6863770249418808e-02  -4.8503977181085944e-01  -1.0224472238420372e+00  -1.4631236203358076e+00  -1.7371826041971603e+00  -1.7978130430986170e+00  -1.6285958459546637e+00  -1.2462869686698406e+00  -6.9862636378954035e-01  -5.7485802723085393e-02  5.9162328037330969e-01  1.1621055413995554e+00  1.5790076367659911e+00  1.7899911858254420e+00  1.7728929453224531e+00  1.5387293558023305e+00  1.1296951924709095e+00  6.1246885019770603e-01  6.7853288799414463e-02  -4.2165803219266779e-01  -7.8448316352393277e-01  -9.7078887661621494e-01  -9.5990155573982394e-01  -7.6315764060527513e-01  -4.2176274760422977e-01  0.0000000000000000e+00  0.0000000000000000e+00  3.0193486924139490e-01  5.3939631893255324e-01  6.5433573798550126e-01  6.0893116894429855e-01  3.9212631932499631e-01  2.2031065682006711e-02  -4.5621727410179547e-01  -9.7684197748142787e-01  -1.4631236214076671e+00  -1.8389531097266962e+00  -2.0404946998097038e+00  -2.0261825896235575e+00  -1.7835146628193286e+00  -1.3315823557745365e+00  -7.1891539560150763e-01  -1.6927924910548179e-02  6.9007914458947583e-01  1.3168779025071906e+00  1.7894495116041129e+00  2.0554768102731149e+00  2.0916165395352131e+00  1.9064582643726877e+00  1.5387293538239866e+00  1.0510270340725958e+00  5.2003941126392450e-01  2.4753022246939701e-02  -3.6554780295303579e-01  -6.0165283409427150e-01  -6.6158254740081723e-01  -5.5343795422711539e-01  -3.1351662645665990e-01  0.0000000000000000e+00  0.0000000000000000e+00  1.7671276240374084e-01  3.0013584883903727e-01  3.2241251648299485e-01  2.1316474505554522e-01  -3.4778942416422064e-02  -4.0329098043837491e-01  -8.5085835962940415e-01  -1.3182598004049275e+00  -1.7371826063413909e+00  -2.0404947009219785e+00  -2.1726187950786549e+00  -2.0984217705894803e+00  -1.8092404338332380e+00  -1.3250851812907589e+00  -6.9263353599617428e-01  2.0739778820175251e-02  7.3604686947381981e-01  1.3735569970295742e+00  1.8638451955434889e+00  2.1573735373800043e+00  2.2311718487505519e+00  2.0916165374921607e+00  1.7728929413709527e+00  1.3313794995374426e+00  8.3681156597074613e-01  3.6157371500058277e-01  -3.0244095327612582e-02  -2.9235424678867045e-01  -4.0289056326416278e-01  -3.6713020782680894e-01  -2.1591066284935950e-01  0.0000000000000000e+00  0.0000000000000000e+00  7.4503767605463400e-02  1.0766528746667720e-01  6.2583958726641395e-02  -8.3496179784663116e-02  -3.3445556554676786e-01  -6.7356177810510232e-01  -1.0650539958858751e+00  -1.4588657580995104e+00  -1.7978130462146851e+00  -2.0261825917895333e+00  -2.0984217716888631e+00  -1.9865941234202553e+00  -1.6854314915679596e+00  -1.2141620196963336e+00  -6.1477152988422812e-01  5.3107349006720754e-02  7.1997006749868642e-01  1.3157587512941382e+00  1.7793581053522975e+00  2.0668615402274400e+00  2.1573735353760850e+00  2.0554768063063480e+00  1.7899911800936261e+00  1.4092101429159161e+00  9.7333566618747969e-01  5.4525994038501591e-01  1.8109747703573031e-01  -7.8087832061601942e-02  -2.1209662363688339e-01  -2.2406084373928911e-01  -1.3919016342609233e-01  0.0000000000000000e+00  0.0000000000000000e+00  2.0101415377537920e-03  -2.5075188112245544e-02  -1.0701374547670950e-01  -2.5919938669076453e-01  -4.8306579123986582e-01  -7.6473039782071128e-01  -1.0761536363738273e+00  -1.3786983993380915e+00  -1.6285958498462683e+00  -1.7835146658849035e+00  -1.8092404359273435e+00  -1.6854314926158012e+00  -1.4095357959217578e+00  -9.9821507714908564e-01  -4.8598954166730096e-01  7.8765656922692620e-02  6.3993560692418494e-01  1.1410256394242746e+00  1.5326960118630459e+00  1.7793581034621941e+00  1.8638451917433652e+00  1.7894495060086610e+00  1.5790076296231923e+00  1.2711599895992642e+00  9.1433962489013587e-01  5.5939442828199826e-01  2.5196091834756579e-01  2.5751803387319711e-02  -1.0221456113424986e-01  -1.3370845647383481e-01  -8.8382041805711353e-02  0.0000000000000000e+00  0.0000000000000000e+00  -4.0144273771972980e-02  -9.7116569013316945e-02  -1.8574111930395013e-01  -3.1456563822982075e-01  -4.8349091841062991e-01  -6.8280578917899226e-01  -8.9384097086455527e-01  -1.0912019256554746e+00  -1.2462869730588786e+00  -1.3315823595019400e+00  -1.3250851841923854e+00  -1.2141620216623692e+00  -9.9821507812833721e-01  -6.8969166814760852e-01  -3.1321383203680020e-01  9.7112442224211337e-02  5.0186754990624316e-01  8.6139096387300862e-01  1.1410256376795429e+00  1.3157587477680837e+00  1.3735569917899659e+00  1.3168778957298557e+00  1.1621055333642674e+00  9.3697017000275296e-01  6.7631930847209998e-01  4.1686462849745998e-01  1.9169452327852468e-01  2.5388005021479122e-02  -6.9516610332383558e-02  -9.4145037114511360e-02  -6.2738057880894607e-02  0.0000000000000000e+00  0.0000000000000000e+00  -5.7069208714305819e-02  -1.1879448967503517e-01  -1.8948435267473429e-01  -2.7142775605722119e-01  -3.6379802266188976e-01  -4.6207772355660737e-01  -5.5815047948433172e-01  -6.4109863054145311e-01  -6.9862636833769887e-01  -7.1891539968859464e-01  -6.9263353945178741e-01  -6.1477153257321693e-01  -4.8598954349541551e-01  -3.1321383295378352e-01  -1.0932924791360206e-01  1.0805054844876925e-01  3.1860635827795269e-01  5.0186754829172608e-01  6.3993560368707436e-01  7.1997006270543495e-01  7.3604686326828661e-01  6.9007913719138847e-01  5.9162327207195287e-01  4.5655954086963213e-01  3.0481147605843356e-01  1.5742380479415000e-01  3.3429597474353770e-02  -5.3015960595906700e-02  -9.4784727548321165e-02  -9.2856056446847024e-02  -5.6134109424152090e-02  0.0000000000000000e+00  0.0000000000000000e+00  -5.8356690684942050e-02  -1.0929969931966071e-01  -1.4708811169573160e-01  -1.6825537804593452e-01  -1.7179747670813950e-01  -1.5898096385934424e-01  -1.3284558728043272e-01  -9.7519661134085917e-02  -5.7485807059285493e-02  -1.6927929015944164e-02  2.0739775108612243e-02  5.3107345837946705e-02  7.8765654425045628e-02  9.7112440499640906e-02  1.0805054756818949e-01  1.1167649120134321e-01  1.0805054691017527e-01  9.7112439202482095e-02  7.8765652526579230e-02  5.3107343395075397e-02  2.0739772197183579e-02  -1.6927932301670810e-02  -5.7485810607889654e-02  -9.7519664819172985e-02  -1.3284559096394657e-01  -1.5898096739607659e-01  -1.7179747995135394e-01  -1.6825538085392094e-01  -1.4708811393896193e-01  -1.0929970088807714e-01  -5.8356691494845798e-02  0.0000000000000000e+00  0.0000000000000000e+00  -5.6134107942315783e-02  -9.2856053592543966e-02  -9.4784723517770356e-02  -5.3015955656415641e-02  3.3429603005013693e-02  1.5742381057148891e-01  3.0481148173614780e-01  4.5655954612367172e-01  5.9162327662187886e-01  6.9007914081749011e-01  7.3604686582324541e-01  7.1997006411991227e-01  6.3993560396906746e-01  5.0186754752009466e-01  3.1860635659099812e-01  1.0805054602905879e-01  -1.0932925085665451e-01  -3.1321383620199345e-01  -4.8598954683898798e-01  -6.1477153582561150e-01  -6.9263354246119657e-01  -7.1891540234525653e-01  -6.9862637057673138e-01  -6.4109863234130982e-01  -5.5815048086135755e-01  -4.6207772455651575e-01  -3.6379802334918815e-01  -2.7142775650379708e-01  -1.8948435294879926e-01  -1.1879448983152367e-01  -5.7069208787661078e-02  0.0000000000000000e+00  0.0000000000000000e+00  -6.2738055815928132e-02  -9.4145033146630461e-02  -6.9516604760569006e-02  2.5388011786226350e-02  1.9169453074664924e-01  4.1686463614000391e-01  6.7631931576222970e-01  9.3697017645621150e-01  1.1621055385754255e+00  1.3168778994005066e+00  1.3735569937486676e+00  1.3157587479786526e+00  1.1410256362383180e+00  8.6139096099540480e-01  5.0186754590405092e-01  9.7112437475810998e-02  -3.1321383712057516e-01  -6.8969167315892921e-01  -9.9821508269608106e-01  -1.2141620254812584e+00  -1.3250851870452225e+00  -1.3315823612731956e+00  -1.2462869737387825e+00  -1.0912019253345395e+00  -8.9384096971933369e-01  -6.8280578745059650e-01  -4.8349091637813785e-01  -3.1456563618112793e-01  -1.8574111750674652e-01  -9.7116567688834893e-02  -4.0144273073832400e-02  0.0000000000000000e+00  0.0000000000000000e+00  -8.8382039264326376e-02  -1.3370845159871189e-01  -1.0221455431381658e-01  2.5751811616903892e-02  2.5196092734735059e-01  5.5939443736319294e-01  9.1433963337052038e-01  1.2711599968583021e+00  1.5790076351511850e+00  1.7894495094459273e+00  1.8638451929062543e+00  1.7793581023539644e+00  1.5326960086689132e+00  1.1410256344913152e+00  6.3993560072809175e-01  7.8765650024391509e-02  -4.8598954867124483e-01  -9.9821508367794254e-01  -1.4095358014595407e+00  -1.6854314967534563e+00  -1.8092404383947329e+00  -1.7835146665699682e+00  -1.6285958488000041e+00  -1.3786983967651401e+00  -1.0761536326097476e+00  -7.6473039329816084e-01  -4.8306578644681003e-01  -2.5919938212453497e-01  -1.0701374159799358e-01  -2.5075185303057766e-02  2.0101430084373947e-03  0.0000000000000000e+00  0.0000000000000000e+00  -1.3919016052633637e-01  -2.2406083818449499e-01  -2.1209661588875173e-01  -7.8087822758915459e-02  1.8109748713175108e-01  5.4525995045535514e-01  9.7333567542437416e-01  1.4092101505903678e+00  1.7899911856156487e+00  2.0554768092728390e+00  2.1573735356023609e+00  2.0668615377598800e+00  1.7793581004611960e+00  1.3157587444475849e+00  7.1997005931990976e-01  5.3107340218688841e-02  -6.1477153852200406e-01  -1.2141620274533240e+00  -1.6854314978048093e+00  -1.9865941276423151e+00  -2.0984217735865758e+00  -2.0261825912622977e+00  -1.7978130433763515e+00  -1.4588657532652123e+00  -1.0650539895415305e+00  -6.7356177086239366e-01  -3.3445555808760735e-01  -8.3496172800102769e-02  6.2583964597747496e-02  1.0766529169394143e-01  7.4503769813283299e-02  0.0000000000000000e+00  0.0000000000000000e+00  -2.1591065971421325e-01  -3.6713020182873546e-01  -4.0289055491984604e-01  -2.9235423681404166e-01  -3.0244084575599465e-02  3.6157372561389289e-01  8.3681157554508601e-01  1.3313795072656560e+00  1.7728929466079033e+00  2.0916165398093867e+00  2.2311718479719831e+00  2.1573735335957651e+00  1.8638451891007146e+00  1.3735569885011429e+00  7.3604685960783223e-01  2.0739768474609496e-02  -6.9263354592789217e-01  -1.3250851899568159e+00  -1.8092404404964852e+00  -2.0984217746902001e+00  -2.1726187962817063e+00  -2.0404946991443480e+00  -1.7371826017578746e+00  -1.3182597934316018e+00  -8.5085835088641293e-01  -4.0329097069534198e-01  -3.4778932525233189e-02  2.1316475423470854e-01  3.2241252415600358e-01  3.0013585434618872e-01  1.7671276527627761e-01  0.0000000000000000e+00  0.0000000000000000e+00  -3.1351662320820972e-01  -5.5343794801971180e-01  -6.6158253878650430e-01  -6.0165282383880181e-01  -3.6554779196835474e-01  2.4753032982910459e-02  5.2003942079321241e-01  1.0510270415412719e+00  1.5387293585571040e+00  1.9064582659335756e+00  2.0916165377639651e+00  2.0554768053009669e+00  1.7894495038425053e+00  1.3168778926124904e+00  6.9007913340647808e-01  -1.6927936421454758e-02  -7.1891540644716045e-01  -1.3315823650146457e+00  -1.7835146696475686e+00  -2.0261825934371180e+00  -2.0404947002613456e+00  -1.8389531067548588e+00  -1.4631236152420812e+00  -9.7684196862379968e-01  -4.5621726328327544e-01  2.2031077562911363e-02  3.9212633127874330e-01  6.0893117997429946e-01  6.5433574717260645e-01  5.3939632551287287e-01  3.0193487267082225e-01  0.0000000000000000e+00  0.0000000000000000e+00  -4.2176274435874866e-01  -7.6315763441059470e-01  -9.5990154716314247e-01  -9.7078886644498419e-01  -7.8448315269559943e-01  -4.2165802171103256e-01  6.7853297953839653e-02  6.1246885715546184e-01  1.1296951965517452e+00  1.5387293565769069e+00  1.7728929426521474e+00  1.7899911798767616e+00  1.5790076279982941e+00  1.1621055305271051e+00  5.9162326830494527e-01  -5.7485814961491910e-02  -6.9862637514311943e-01  -1.2462869781456831e+00  -1.6285958527078284e+00  -1.7978130465057784e+00  -1.7371826039115781e+00  -1.4631236163188179e+00  -1.0224472163683769e+00  -4.8503976144733635e-01  6.6863782690119861e-02  5.5118119649723007e-01  8.9836234385558356e-01  1.0617759005334568e+00  1.0245416309647806e+00  8.0178969054689575e-01  4.3802309959277297e-01  0.0000000000000000e+00  0.0000000000000000e+00  -5.2661801797874397e-01  -9.6889970421573968e-01  -1.2583237540122383e+00  -1.3498144591201333e+00  -1.2287816044138860e+00  -9.1345523231295478e-01  -4.5215280664735952e-01  8.4101357290442227e-02  6.1246885535254358e-01  1.0510270378222988e+00  1.3313795016986731e+00  1.4092101434283240e+00  1.2711599885257652e+00  9.3697016751992890e-01  4.5655953724924814e-01  -9.7519669235793596e-02  -6.4109863717376769e-01  -1.0912019301960525e+00  -1.3786984012946011e+00  -1.4588657