<?xml version="1.0"?>
<VTKFile type="UnstructuredGrid"  version="0.1"  >
<UnstructuredGrid>
<Piece  NumberOfPoints="1089" NumberOfCells="2048">
<Points>
<DataArray  type="Float64"  NumberOfComponents="3"  format="ascii">0 0 0  0.03125 0 0  0.0625 0 0  0.09375 0 0  0.125 0 0  0.15625 0 0  0.1875 0 0  0.21875 0 0  0.25 0 0  0.28125 0 0  0.3125 0 0  0.34375 0 0  0.375 0 0  0.40625 0 0  0.4375 0 0  0.46875 0 0  0.5 0 0  0.53125 0 0  0.5625 0 0  0.59375 0 0  0.625 0 0  0.65625 0 0  0.6875 0 0  0.71875 0 0  0.75 0 0  0.78125 0 0  0.8125 0 0  0.84375 0 0  0.875 0 0  0.90625 0 0  0.9375 0 0  0.96875 0 0  1 0 0  0 0.03125 0  0.03125 0.03125 0  0.0625 0.03125 0  0.09375 0.03125 0  0.125 0.03125 0  0.15625 0.03125 0  0.1875 0.03125 0  0.21875 0.03125 0  0.25 0.03125 0  0.28125 0.03125 0  0.3125 0.03125 0  0.34375 0.03125 0  0.375 0.03125 0  0.40625 0.03125 0  0.4375 0.03125 0  0.46875 0.03125 0  0.5 0.03125 0  0.53125 0.03125 0  0.5625 0.03125 0  0.59375 0.03125 0  0.625 0.03125 0  0.65625 0.03125 0  0.6875 0.03125 0  0.71875 0.03125 0  0.75 0.03125 0  0.78125 0.03125 0  0.8125 0.03125 0  0.84375 0.03125 0  0.875 0.03125 0  0.90625 0.03125 0  0.9375 0.03125 0  0.96875 0.03125 0  1 0.03125 0  0 0.0625 0  0.03125 0.0625 0  0.0625 0.0625 0  0.09375 0.0625 0  0.125 0.0625 0  0.15625 0.0625 0  0.1875 0.0625 0  0.21875 0.0625 0  0.25 0.0625 0  0.28125 0.0625 0  0.3125 0.0625 0  0.34375 0.0625 0  0.375 0.0625 0  0.40625 0.0625 0  0.4375 0.0625 0  0.46875 0.0625 0  0.5 0.0625 0  0.53125 0.0625 0  0.5625 0.0625 0  0.59375 0.0625 0  0.625 0.0625 0  0.65625 0.0625 0  0.6875 0.0625 0  0.71875 0.0625 0  0.75 0.0625 0  0.78125 0.0625 0  0.8125 0.0625 0  0.84375 0.0625 0  0.875 0.0625 0  0.90625 0.0625 0  0.9375 0.0625 0  0.96875 0.0625 0  1 0.0625 0  0 0.09375 0  0.03125 0.09375 0  0.0625 0.09375 0  0.09375 0.09375 0  0.125 0.09375 0  0.15625 0.09375 0  0.1875 0.09375 0  0.21875 0.09375 0  0.25 0.09375 0  0.28125 0.09375 0  0.3125 0.09375 0  0.34375 0.09375 0  0.375 0.09375 0  0.40625 0.09375 0  0.4375 0.09375 0  0.46875 0.09375 0  0.5 0.09375 0  0.53125 0.09375 0  0.5625 0.09375 0  0.59375 0.09375 0  0.625 0.09375 0  0.65625 0.09375 0  0.6875 0.09375 0  0.71875 0.09375 0  0.75 0.09375 0  0.78125 0.09375 0  0.8125 0.09375 0  0.84375 0.09375 0  0.875 0.09375 0  0.90625 0.09375 0  0.9375 0.09375 0  0.96875 0.09375 0  1 0.09375 0  0 0.125 0  0.03125 0.125 0  0.0625 0.125 0  0.09375 0.125 0  0.125 0.125 0  0.15625 0.125 0  0.1875 0.125 0  0.21875 0.125 0  0.25 0.125 0  0.28125 0.125 0  0.3125 0.125 0  0.34375 0.125 0  0.375 0.125 0  0.40625 0.125 0  0.4375 0.125 0  0.46875 0.125 0  0.5 0.125 0  0.53125 0.125 0  0.5625 0.125 0  0.59375 0.125 0  0.625 0.125 0  0.65625 0.125 0  0.6875 0.125 0  0.71875 0.125 0  0.75 0.125 0  0.78125 0.125 0  0.8125 0.125 0  0.84375 0.125 0  0.875 0.125 0  0.90625 0.125 0  0.9375 0.125 0  0.96875 0.125 0  1 0.125 0  0 0.15625 0  0.03125 0.15625 0  0.0625 0.15625 0  0.09375 0.15625 0  0.125 0.15625 0  0.15625 0.15625 0  0.1875 0.15625 0  0.21875 0.15625 0  0.25 0.15625 0  0.28125 0.15625 0  0.3125 0.15625 0  0.34375 0.15625 0  0.375 0.15625 0  0.40625 0.15625 0  0.4375 0.15625 0  0.46875 0.15625 0  0.5 0.15625 0  0.53125 0.15625 0  0.5625 0.15625 0  0.59375 0.15625 0  0.625 0.15625 0  0.65625 0.15625 0  0.6875 0.15625 0  0.71875 0.15625 0  0.75 0.15625 0  0.78125 0.15625 0  0.8125 0.15625 0  0.84375 0.15625 0  0.875 0.15625 0  0.90625 0.15625 0  0.9375 0.15625 0  0.96875 0.15625 0  1 0.15625 0  0 0.1875 0  0.03125 0.1875 0  0.0625 0.1875 0  0.09375 0.1875 0  0.125 0.1875 0  0.15625 0.1875 0  0.1875 0.1875 0  0.21875 0.1875 0  0.25 0.1875 0  0.28125 0.1875 0  0.3125 0.1875 0  0.34375 0.1875 0  0.375 0.1875 0  0.40625 0.1875 0  0.4375 0.1875 0  0.46875 0.1875 0  0.5 0.1875 0  0.53125 0.1875 0  0.5625 0.1875 0  0.59375 0.1875 0  0.625 0.1875 0  0.65625 0.1875 0  0.6875 0.1875 0  0.71875 0.1875 0  0.75 0.1875 0  0.78125 0.1875 0  0.8125 0.1875 0  0.84375 0.1875 0  0.875 0.1875 0  0.90625 0.1875 0  0.9375 0.1875 0  0.96875 0.1875 0  1 0.1875 0  0 0.21875 0  0.03125 0.21875 0  0.0625 0.21875 0  0.09375 0.21875 0  0.125 0.21875 0  0.15625 0.21875 0  0.1875 0.21875 0  0.21875 0.21875 0  0.25 0.21875 0  0.28125 0.21875 0  0.3125 0.21875 0  0.34375 0.21875 0  0.375 0.21875 0  0.40625 0.21875 0  0.4375 0.21875 0  0.46875 0.21875 0  0.5 0.21875 0  0.53125 0.21875 0  0.5625 0.21875 0  0.59375 0.21875 0  0.625 0.21875 0  0.65625 0.21875 0  0.6875 0.21875 0  0.71875 0.21875 0  0.75 0.21875 0  0.78125 0.21875 0  0.8125 0.21875 0  0.84375 0.21875 0  0.875 0.21875 0  0.90625 0.21875 0  0.9375 0.21875 0  0.96875 0.21875 0  1 0.21875 0  0 0.25 0  0.03125 0.25 0  0.0625 0.25 0  0.09375 0.25 0  0.125 0.25 0  0.15625 0.25 0  0.1875 0.25 0  0.21875 0.25 0  0.25 0.25 0  0.28125 0.25 0  0.3125 0.25 0  0.34375 0.25 0  0.375 0.25 0  0.40625 0.25 0  0.4375 0.25 0  0.46875 0.25 0  0.5 0.25 0  0.53125 0.25 0  0.5625 0.25 0  0.59375 0.25 0  0.625 0.25 0  0.65625 0.25 0  0.6875 0.25 0  0.71875 0.25 0  0.75 0.25 0  0.78125 0.25 0  0.8125 0.25 0  0.84375 0.25 0  0.875 0.25 0  0.90625 0.25 0  0.9375 0.25 0  0.96875 0.25 0  1 0.25 0  0 0.28125 0  0.03125 0.28125 0  0.0625 0.28125 0  0.09375 0.28125 0  0.125 0.28125 0  0.15625 0.28125 0  0.1875 0.28125 0  0.21875 0.28125 0  0.25 0.28125 0  0.28125 0.28125 0  0.3125 0.28125 0  0.34375 0.28125 0  0.375 0.28125 0  0.40625 0.28125 0  0.4375 0.28125 0  0.46875 0.28125 0  0.5 0.28125 0  0.53125 0.28125 0  0.5625 0.28125 0  0.59375 0.28125 0  0.625 0.28125 0  0.65625 0.28125 0  0.6875 0.28125 0  0.71875 0.28125 0  0.75 0.28125 0  0.78125 0.28125 0  0.8125 0.28125 0  0.84375 0.28125 0  0.875 0.28125 0  0.90625 0.28125 0  0.9375 0.28125 0  0.96875 0.28125 0  1 0.28125 0  0 0.3125 0  0.03125 0.3125 0  0.0625 0.3125 0  0.09375 0.3125 0  0.125 0.3125 0  0.15625 0.3125 0  0.1875 0.3125 0  0.21875 0.3125 0  0.25 0.3125 0  0.28125 0.3125 0  0.3125 0.3125 0  0.34375 0.3125 0  0.375 0.3125 0  0.40625 0.3125 0  0.4375 0.3125 0  0.46875 0.3125 0  0.5 0.3125 0  0.53125 0.3125 0  0.5625 0.3125 0  0.59375 0.3125 0  0.625 0.3125 0  0.65625 0.3125 0  0.6875 0.3125 0  0.71875 0.3125 0  0.75 0.3125 0  0.78125 0.3125 0  0.8125 0.3125 0  0.84375 0.3125 0  0.875 0.3125 0  0.90625 0.3125 0  0.9375 0.3125 0  0.96875 0.3125 0  1 0.3125 0  0 0.34375 0  0.03125 0.34375 0  0.0625 0.34375 0  0.09375 0.34375 0  0.125 0.34375 0  0.15625 0.34375 0  0.1875 0.34375 0  0.21875 0.34375 0  0.25 0.34375 0  0.28125 0.34375 0  0.3125 0.34375 0  0.34375 0.34375 0  0.375 0.34375 0  0.40625 0.34375 0  0.4375 0.34375 0  0.46875 0.34375 0  0.5 0.34375 0  0.53125 0.34375 0  0.5625 0.34375 0  0.59375 0.34375 0  0.625 0.34375 0  0.65625 0.34375 0  0.6875 0.34375 0  0.71875 0.34375 0  0.75 0.34375 0  0.78125 0.34375 0  0.8125 0.34375 0  0.84375 0.34375 0  0.875 0.34375 0  0.90625 0.34375 0  0.9375 0.34375 0  0.96875 0.34375 0  1 0.34375 0  0 0.375 0  0.03125 0.375 0  0.0625 0.375 0  0.09375 0.375 0  0.125 0.375 0  0.15625 0.375 0  0.1875 0.375 0  0.21875 0.375 0  0.25 0.375 0  0.28125 0.375 0  0.3125 0.375 0  0.34375 0.375 0  0.375 0.375 0  0.40625 0.375 0  0.4375 0.375 0  0.46875 0.375 0  0.5 0.375 0  0.53125 0.375 0  0.5625 0.375 0  0.59375 0.375 0  0.625 0.375 0  0.65625 0.375 0  0.6875 0.375 0  0.71875 0.375 0  0.75 0.375 0  0.78125 0.375 0  0.8125 0.375 0  0.84375 0.375 0  0.875 0.375 0  0.90625 0.375 0  0.9375 0.375 0  0.96875 0.375 0  1 0.375 0  0 0.40625 0  0.03125 0.40625 0  0.0625 0.40625 0  0.09375 0.40625 0  0.125 0.40625 0  0.15625 0.40625 0  0.1875 0.40625 0  0.21875 0.40625 0  0.25 0.40625 0  0.28125 0.40625 0  0.3125 0.40625 0  0.34375 0.40625 0  0.375 0.40625 0  0.40625 0.40625 0  0.4375 0.40625 0  0.46875 0.40625 0  0.5 0.40625 0  0.53125 0.40625 0  0.5625 0.40625 0  0.59375 0.40625 0  0.625 0.40625 0  0.65625 0.40625 0  0.6875 0.40625 0  0.71875 0.40625 0  0.75 0.40625 0  0.78125 0.40625 0  0.8125 0.40625 0  0.84375 0.40625 0  0.875 0.40625 0  0.90625 0.40625 0  0.9375 0.40625 0  0.96875 0.40625 0  1 0.40625 0  0 0.4375 0  0.03125 0.4375 0  0.0625 0.4375 0  0.09375 0.4375 0  0.125 0.4375 0  0.15625 0.4375 0  0.1875 0.4375 0  0.21875 0.4375 0  0.25 0.4375 0  0.28125 0.4375 0  0.3125 0.4375 0  0.34375 0.4375 0  0.375 0.4375 0  0.40625 0.4375 0  0.4375 0.4375 0  0.46875 0.4375 0  0.5 0.4375 0  0.53125 0.4375 0  0.5625 0.4375 0  0.59375 0.4375 0  0.625 0.4375 0  0.65625 0.4375 0  0.6875 0.4375 0  0.71875 0.4375 0  0.75 0.4375 0  0.78125 0.4375 0  0.8125 0.4375 0  0.84375 0.4375 0  0.875 0.4375 0  0.90625 0.4375 0  0.9375 0.4375 0  0.96875 0.4375 0  1 0.4375 0  0 0.46875 0  0.03125 0.46875 0  0.0625 0.46875 0  0.09375 0.46875 0  0.125 0.46875 0  0.15625 0.46875 0  0.1875 0.46875 0  0.21875 0.46875 0  0.25 0.46875 0  0.28125 0.46875 0  0.3125 0.46875 0  0.34375 0.46875 0  0.375 0.46875 0  0.40625 0.46875 0  0.4375 0.46875 0  0.46875 0.46875 0  0.5 0.46875 0  0.53125 0.46875 0  0.5625 0.46875 0  0.59375 0.46875 0  0.625 0.46875 0  0.65625 0.46875 0  0.6875 0.46875 0  0.71875 0.46875 0  0.75 0.46875 0  0.78125 0.46875 0  0.8125 0.46875 0  0.84375 0.46875 0  0.875 0.46875 0  0.90625 0.46875 0  0.9375 0.46875 0  0.96875 0.46875 0  1 0.46875 0  0 0.5 0  0.03125 0.5 0  0.0625 0.5 0  0.09375 0.5 0  0.125 0.5 0  0.15625 0.5 0  0.1875 0.5 0  0.21875 0.5 0  0.25 0.5 0  0.28125 0.5 0  0.3125 0.5 0  0.34375 0.5 0  0.375 0.5 0  0.40625 0.5 0  0.4375 0.5 0  0.46875 0.5 0  0.5 0.5 0  0.53125 0.5 0  0.5625 0.5 0  0.59375 0.5 0  0.625 0.5 0  0.65625 0.5 0  0.6875 0.5 0  0.71875 0.5 0  0.75 0.5 0  0.78125 0.5 0  0.8125 0.5 0  0.84375 0.5 0  0.875 0.5 0  0.90625 0.5 0  0.9375 0.5 0  0.96875 0.5 0  1 0.5 0  0 0.53125 0  0.03125 0.53125 0  0.0625 0.53125 0  0.09375 0.53125 0  0.125 0.53125 0  0.15625 0.53125 0  0.1875 0.53125 0  0.21875 0.53125 0  0.25 0.53125 0  0.28125 0.53125 0  0.3125 0.53125 0  0.34375 0.53125 0  0.375 0.53125 0  0.40625 0.53125 0  0.4375 0.53125 0  0.46875 0.53125 0  0.5 0.53125 0  0.53125 0.53125 0  0.5625 0.53125 0  0.59375 0.53125 0  0.625 0.53125 0  0.65625 0.53125 0  0.6875 0.53125 0  0.71875 0.53125 0  0.75 0.53125 0  0.78125 0.531
[...]
<PointData  Scalars="Eigenfunction"> 
<DataArray  type="Float64"  Name="Eigenfunction"  format="ascii">0.0000000000000000e+00  0.0000000000000000e+00  0.0000000000000000e+00  0.0000000000000000e+00  0.0000000000000000e+00  0.0000000000000000e+00  0.0000000000000000e+00  0.0000000000000000e+00  0.0000000000000000e+00  0.0000000000000000e+00  0.0000000000000000e+00  0.0000000000000000e+00  0.0000000000000000e+00  0.0000000000000000e+00  0.0000000000000000e+00  0.0000000000000000e+00  0.0000000000000000e+00  0.0000000000000000e+00  0.0000000000000000e+00  0.0000000000000000e+00  0.0000000000000000e+00  0.0000000000000000e+00  0.0000000000000000e+00  0.0000000000000000e+00  0.0000000000000000e+00  0.0000000000000000e+00  0.0000000000000000e+00  0.0000000000000000e+00  0.0000000000000000e+00  0.0000000000000000e+00  0.0000000000000000e+00  0.0000000000000000e+00  0.0000000000000000e+00  0.0000000000000000e+00  -1.6511851769821462e-01  -3.1831328525664387e-01  -4.5082422043269316e-01  -5.5499324319950394e-01  -6.2501002471946121e-01  -6.5737838910757485e-01  -6.5115911851105890e-01  -6.0800024944100006e-01  -5.3196455496301587e-01  -4.2917421316831755e-01  -3.0730514065320014e-01  -1.7497449139547103e-01  -4.1072638650644505e-02  8.5905360946280165e-02  1.9847469042969826e-01  2.9067331302504756e-01  3.5843276000392155e-01  3.9978042184436735e-01  4.1486135174697508e-01  4.0578319420399478e-01  3.7630296488925152e-01  3.3138771270510109e-01  2.7669146205580730e-01  2.1799737071142228e-01  1.6067619856438584e-01  1.0920981463058066e-01  6.6821792356909659e-02  3.5246811098580300e-02  1.4657547463173473e-02  3.7532688597765223e-03  8.7700171949659720e-10  0.0000000000000000e+00  0.0000000000000000e+00  -3.1831328534153908e-01  -6.1463856711307041e-01  -8.7124843160951593e-01  -1.0730069921466809e+00  -1.2085107906520356e+00  -1.2709120435470422e+00  -1.2583670665928843e+00  -1.1740875616178534e+00  -1.0260010531181059e+00  -8.2605555481262438e-01  -5.8923056770037385e-01  -3.3233897920470051e-01  -7.2720105825164777e-02  1.7306848344548806e-01  3.9045430733711356e-01  5.6785284630523225e-01  6.9739268275421118e-01  7.7531035308004936e-01  8.0199126535203946e-01  7.8166364378584863e-01  7.2178211391976199e-01  6.3216369372927039e-01  5.2395933844962495e-01  4.0855707855213846e-01  2.9651709576735746e-01  1.9663448134674735e-01  1.1521237049806661e-01  5.5607854741841954e-02  1.8087421532434967e-02  2.1903879835122618e-09  -3.7532661784494005e-03  0.0000000000000000e+00  0.0000000000000000e+00  -4.5082422108149056e-01  -8.7124843227833060e-01  -1.2354616756023002e+00  -1.5215675698279560e+00  -1.7131306268373918e+00  -1.8003124573309082e+00  -1.7804953525971152e+00  -1.6583455450034539e+00  -1.4453175364360640e+00  -1.1586467200482466e+00  -8.1991854247495843e-01  -4.5333586742078835e-01  -8.3829346108457603e-02  2.6483344410071502e-01  5.7178646884361373e-01  8.2051269247033709e-01  9.9988846560920053e-01  1.1047485823045922e+00  1.1359376764228457e+00  1.0998580459729568e+00  1.0075670728218111e+00  8.7351541354055184e-01  7.1404680343722216e-01  5.4579911083132338e-01  3.8415259711093186e-01  2.4186471657339736e-01  1.2801185111403304e-01  4.7328869331987287e-02  2.4784089044706345e-09  -1.8087416689025408e-02  -1.4657544616915350e-02  0.0000000000000000e+00  0.0000000000000000e+00  -5.5499324482059664e-01  -1.0730069943804708e+00  -1.5215675715690002e+00  -1.8731795894775907e+00  -2.1072575141995138e+00  -2.2115376357699241e+00  -2.1828494799995743e+00  -2.0271849450664239e+00  -1.7590643899026994e+00  -1.4002576465333951e+00  -9.7797068919207431e-01  -5.2265159480335110e-01  -6.5599139027457953e-02  3.6342849573099784e-01  7.3840998484244558e-01  1.0388861409333836e+00  1.2512719425967913e+00  1.3695585174578877e+00  1.3953615909494366e+00  1.3373294443752071e+00  1.2099782699744954e+00  1.0320712467619475e+00  8.2469550349666410e-01  6.0921512673821332e-01  4.0528650037793412e-01  2.2911385787992014e-01  9.2098814142764676e-02  1.1995227749876391e-09  -4.7328865576960359e-02  -5.5607850788247093e-02  -3.5246808494515010e-02  0.0000000000000000e+00  0.0000000000000000e+00  -6.2501002728290844e-01  -1.2085107946845641e+00  -1.7131306307405512e+00  -2.1072575167003111e+00  -2.3672878905761885e+00  -2.4792611393071233e+00  -2.4397466657632068e+00  -2.2559137168899932e+00  -1.9447830859852977e+00  -1.5317279375445743e+00  -1.0483527809864961e+00  -5.2993004287441337e-01  -1.2608685492836242e-02  4.6937395685995653e-01  8.8624883534118537e-01  1.2148342086799560e+00  1.4400503953598598e+00  1.5557169859770728e+00  1.5645818730362531e+00  1.4775979088366409e+00  1.3125275222904031e+00  1.0920126436186679e+00  8.4129186557791036e-01  5.8577506991458783e-01  3.4869536469779183e-01  1.4904830914121472e-01  -1.2614488606357932e-11  -9.2098813219810005e-02  -1.2801184905248350e-01  -1.1521236812377275e-01  -6.6821790692690397e-02  0.0000000000000000e+00  0.0000000000000000e+00  -6.5737839275899734e-01  -1.2709120495819763e+00  -1.8003124638887780e+00  -2.2115376412779173e+00  -2.4792611425406510e+00  -2.5886597076722788e+00  -2.5363768852929485e+00  -2.3305877582106582e+00  -1.9901644990329024e+00  -1.5430170895478759e+00  -1.0237515872871026e+00  -4.7084409273859623e-01  7.6432638712035678e-02  5.8107438502257025e-01  1.0111500065198022e+00  1.3421174153797566e+00  1.5584667820302494e+00  1.6545659874784380e+00  1.6346528513255079e+00  1.5119924837189695e+00  1.3072898416381629e+00  1.0465109863381949e+00  7.5831616906097965e-01  4.7133940568864474e-01  2.1155993670431078e-01  6.7700709764761707e-10  -1.4904830870339791e-01  -2.2911385724794595e-01  -2.4186471543231497e-01  -1.9663448019904362e-01  -1.0920981388936450e-01  0.0000000000000000e+00  0.0000000000000000e+00  -6.5115912286207023e-01  -1.2583670742461073e+00  -1.7804953617290027e+00  -2.1828494886049223e+00  -2.4397466723686430e+00  -2.5363768889163363e+00  -2.4697987852092167e+00  -2.2489927803724519e+00  -1.8939716885791351e+00  -1.4340274204005279e+00  -9.0526391683084406e-01  -3.4762528289466560e-01  1.9833090391923658e-01  6.9464541968611881e-01  1.1088879016812414e+00  1.4165654774785092e+00  1.6028152751404763e+00  1.6632492969543433e+00  1.6038938733362631e+00  1.4402442610034576e+00  1.1955311376549766e+00  8.9836315906898412e-01  5.7996252786442126e-01  2.7124410014193318e-01  2.9126165283350933e-09  -2.1155993351810681e-01  -3.4869536324693001e-01  -4.0528649931279076e-01  -3.8415259599040441e-01  -2.9651709480505656e-01  -1.6067619805689193e-01  0.0000000000000000e+00  0.0000000000000000e+00  -6.0800025446685246e-01  -1.1740875707649840e+00  -1.6583455564744651e+00  -2.0271849566895623e+00  -2.2559137267216949e+00  -2.3305877649314799e+00  -2.2489927836159351e+00  -2.0206793136386016e+00  -1.6660514741754266e+00  -1.2145890524644021e+00  -7.0235478938979323e-01  -1.6899830643077179e-01  3.4549030383892615e-01  8.0400415791624391e-01  1.1752507050590368e+00  1.4361467416561218e+00  1.5734808390570389e+00  1.5847105290647934e+00  1.4778366920934543e+00  1.2703774582328549e+00  9.8754166569073687e-01  6.5977076340487384e-01  3.1987198887827140e-01  4.4266670396983302e-09  -2.7124409238207131e-01  -4.7133940033540572e-01  -5.8577506683622360e-01  -6.0921512476039719e-01  -5.4579910946977483e-01  -4.0855707735858499e-01  -2.1799737000006075e-01  0.0000000000000000e+00  0.0000000000000000e+00  -5.3196456035110573e-01  -1.0260010633133692e+00  -1.4453175494988473e+00  -1.7590644034273932e+00  -1.9447830979755183e+00  -1.9901645080741290e+00  -1.8939716941571945e+00  -1.6660514764853915e+00  -1.3264353877932578e+00  -9.0360717234205645e-01  -4.3208430906732559e-01  5.0481011081640548e-02  5.0643546699779407e-01  9.0122715365961670e-01  1.2062145923085414e+00  1.4009453060081494e+00  1.4747130513358913e+00  1.4272652362125944e+00  1.2686056077573324e+00  1.0179156248564727e+00  7.0169423184392854e-01  3.5128341531043039e-01  4.2911769424409666e-09  -3.1987198006704048e-01  -5.7996251955604450e-01  -7.5831616253928447e-01  -8.4129186118339760e-01  -8.2469550070540953e-01  -7.1404680169458068e-01  -5.2395933700545971e-01  -2.7669146122718630e-01  0.0000000000000000e+00  0.0000000000000000e+00  -4.2917421842766590e-01  -8.2605556476854325e-01  -1.1586467330755013e+00  -1.4002576601384544e+00  -1.5317279498707150e+00  -1.5430170991771615e+00  -1.4340274269105184e+00  -1.2145890557430310e+00  -9.0360717329348816e-01  -5.2744306739747637e-01  -1.1766598263865095e-01  2.9163301483461795e-01  6.6673598822300950e-01  9.7715426331224264e-01  1.1982008807341031e+00  1.3130584007815098e+00  1.3141641647555864e+00  1.2037937309509223e+00  9.9379237394325370e-01  7.0447830521371391e-01  3.6281325846643525e-01  3.4483209311661466e-09  -3.5128340800351077e-01  -6.5977075606811519e-01  -8.9836315211067552e-01  -1.0465109808473370e+00  -1.0920126399739920e+00  -1.0320712444116660e+00  -8.7351541211410011e-01  -6.3216369264147210e-01  -3.3138771188429744e-01  0.0000000000000000e+00  0.0000000000000000e+00  -3.0730514516320179e-01  -5.8923057620096464e-01  -8.1991855362066413e-01  -9.7797070096685534e-01  -1.0483527917594304e+00  -1.0237515958628578e+00  -9.0526392256918675e-01  -7.0235479237948195e-01  -4.3208430998548314e-01  -1.1766598261377055e-01  2.1352251006062192e-01  5.3230681373967736e-01  8.1025836898687720e-01  1.0221918860621291e+00  1.1484001177214582e+00  1.1764294017004662e+00  1.1022378730951181e+00  9.3063072236725430e-01  6.7492897179171507e-01  3.5589462920204840e-01  1.8418014854697367e-09  -3.6281325352024285e-01  -7.0169422707549001e-01  -9.8754166153703604e-01  -1.1955311341565957e+00  -1.3072898396423860e+00  -1.3125275217382677e+00  -1.2099782703896720e+00  -1.0075670735936721e+00  -7.2178211443795615e-01  -3.7630296501677746e-01  0.0000000000000000e+00  0.0000000000000000e+00  -1.7497449452968744e-01  -3.3233898495823871e-01  -4.5333587475037496e-01  -5.2265160254014342e-01  -5.2993005002862925e-01  -4.7084409829186680e-01  -3.4762528645890561e-01  -1.6899830819475320e-01  5.0481010691367234e-02  2.9163301510735767e-01  5.3230681393653168e-01  7.4933757336054541e-01  9.2063909782642017e-01  1.0272479409671327e+00  1.0551368329862718e+00  9.9663274650444400e-01  8.5130713209332087e-01  6.2625010899640010e-01  3.3569299306507194e-01  1.5690398740264650e-10  -3.5589462752766138e-01  -7.0447830308715043e-01  -1.0179156236078204e+00  -1.2703774581784202e+00  -1.4402442621839391e+00  -1.5119924865102787e+00  -1.4775979131039092e+00  -1.3373294493182093e+00  -1.0998580505194664e+00  -7.8166364732257987e-01  -4.0578319598680995e-01  0.0000000000000000e+00  0.0000000000000000e+00  -4.1072640092620974e-02  -7.2720108003390779e-02  -8.3829348463284215e-02  -6.5599141095384964e-02  -1.2608687138973309e-02  7.6432637796366304e-02  1.9833090409394247e-01  3.4549030472880582e-01  5.0643546804475481e-01  6.6673598923748034e-01  8.1025836970436471e-01  9.2063909798917631e-01  9.8284998077315844e-01  9.8471521408008245e-01  9.1824032316784698e-01  7.8062616985461930e-01  5.7486586498760894e-01  3.0985666938700090e-01  -1.0513925586766002e-09  -3.3569299408506609e-01  -6.7492897189548640e-01  -9.9379237429281897e-01  -1.2686056093965887e+00  -1.4778366956711260e+00  -1.6038938785812757e+00  -1.6346528584013404e+00  -1.5645818816999200e+00  -1.3953616000991971e+00  -1.1359376848175626e+00  -8.0199127186241059e-01  -4.1486135522172474e-01  0.0000000000000000e+00  0.0000000000000000e+00  8.5905361609885503e-02  1.7306848509204614e-01  2.6483344728366165e-01  3.6342850014823769e-01  4.6937396157648753e-01  5.8107438965179870e-01  6.9464542417118103e-01  8.0400416184451517e-01  9.0122715655635410e-01  9.7715426506525482e-01  1.0221918870790221e+00  1.0272479414508300e+00  9.8471521436357046e-01  8.8941111667669726e-01  7.3938140854284928e-01  5.3648340769801617e-01  2.8668017544329710e-01  -1.5556229511567804e-09  -3.0985667192573951e-01  -6.2625011043844070e-01  -9.3063072337228681e-01  -1.2037937327306478e+00  -1.4272652397419061e+00  -1.5847105347926436e+00  -1.6632493047836960e+00  -1.6545659975846330e+00  -1.5557169977838430e+00  -1.3695585297454420e+00  -1.1047485934979806e+00  -7.7531036157593580e-01  -3.9978042642662670e-01  0.0000000000000000e+00  0.0000000000000000e+00  1.9847469316137636e-01  3.9045431274198589e-01  5.7178647671104488e-01  7.3840999466496193e-01  8.8624884554898520e-01  1.0111500159008202e+00  1.1088879096113595e+00  1.1752507110753645e+00  1.2062145961225266e+00  1.1982008824090302e+00  1.1484001181817640e+00  1.0551368329994448e+00  9.1824032309877512e-01  7.3938140821841680e-01  5.2233333227302192e-01  2.7311733707789254e-01  -1.5407487956300012e-09  -2.8668017804589457e-01  -5.7486586677010931e-01  -8.5130713274354264e-01  -1.1022378735062384e+00  -1.3141641665775652e+00  -1.4747130557043719e+00  -1.5734808459275857e+00  -1.6028152841675500e+00  -1.5584667932605927e+00  -1.4400504086312229e+00  -1.2512719562680272e+00  -9.9988847772929890e-01  -6.9739269179494834e-01  -3.5843276478422387e-01  0.0000000000000000e+00  0.0000000000000000e+00  2.9067331707897009e-01  5.6785285419236653e-01  8.2051270353753136e-01  1.0388861541712833e+00  1.2148342223224533e+00  1.3421174274597825e+00  1.4165654870053916e+00  1.4361467481069110e+00  1.4009453092072195e+00  1.3130584013112903e+00  1.1764294008973102e+00  9.9663274514054756e-01  7.8062616854339606e-01  5.3648340620093726e-01  2.7311733591200088e-01  -2.5660274735326210e-09  -2.7311734051111414e-01  -5.3648340919787363e-01  -7.8062616982199284e-01  -9.9663274508695432e-01  -1.1764294001906526e+00  -1.3130584011450028e+00  -1.4009453095909929e+00  -1.4361467482472938e+00  -1.4165654861811705e+00  -1.3421174261859332e+00  -1.2148342214819929e+00  -1.0388861540435514e+00  -8.2051270400147469e-01  -5.6785285479919279e-01  -2.9067331753953046e-01  0.0000000000000000e+00  0.0000000000000000e+00  3.5843276451642014e-01  6.9739269168738849e-01  9.9988847794726388e-01  1.2512719571120925e+00  1.4400504099777822e+00  1.5584667946221606e+00  1.6028152842892507e+00  1.5734808443767474e+00  1.4747130530419834e+00  1.3141641637133641e+00  1.1022378706833968e+00  8.5130712934928654e-01  5.7486586253342953e-01  2.8668017299423920e-01  -3.8088671723843985e-09  -2.7311734189472570e-01  -5.2233333503733415e-01  -7.3938140834347155e-01  -9.1824032072519923e-01  -1.0551368289437186e+00  -1.1484001135512838e+00  -1.1982008784536720e+00  -1.2062145936047421e+00  -1.1752507096318157e+00  -1.1088879085724097e+00  -1.0111500154424966e+00  -8.8624884590118058e-01  -7.3840999560855003e-01  -5.7178647811056904e-01  -3.9045431404340553e-01  -1.9847469408697088e-01  0.0000000000000000e+00  0.0000000000000000e+00  3.9978042627464372e-01  7.7531036163094524e-01  1.1047485940115254e+00  1.3695585305519147e+00  1.5557169987940587e+00  1.6545659980468603e+00  1.6632493037640899e+00  1.5847105318977901e+00  1.4272652355646889e+00  1.2037937279008677e+00  9.3063071839371347e-01  6.2625010518851432e-01  3.0985666622075325e-01  -4.0775234940432446e-09  -2.8668018044372384e-01  -5.3648341120616727e-01  -7.3938140931744778e-01  -8.8941111396935479e-01  -9.8471520877944929e-01  -1.0272479340488831e+00  -1.0221918791214293e+00  -9.7715425791595356e-01  -9.0122715150174204e-01  -8.0400415897502031e-01  -6.9464542300167564e-01  -5.8107439023436025e-01  -4.6937396341452475e-01  -3.6342850231196905e-01  -2.6483344951564519e-01  -1.7306848721664167e-01  -8.5905363079625097e-02  0.0000000000000000e+00  0.0000000000000000e+00  4.1486135549303760e-01  8.0199127264361991e-01  1.1359376859687269e+00  1.3953616012026338e+00  1.5645818823754767e+00  1.6346528581725590e+00  1.6038938765337707e+00  1.4778366916904702e+00  1.2686056041651264e+00  9.9379236863013498e-01  6.7492896627999421e-01  3.3569298846850926e-01  -4.3397891143902230e-09  -3.0985667432561959e-01  -5.7486586870638379e-01  -7.8062617166315695e-01  -9.1824032226042296e-01  -9.8471520964122539e-01  -9.8284997342906644e-01  -9.2063908888382340e-01  -8.1025835995391138e-01  -6.6673598046081251e-01  -5.0643546147476048e-01  -3.4549030069443343e-01  -1.9833090245880966e-01  -7.6432638685061519e-02  1.2608684538140709e-02  6.5599138067378424e-02  8.3829345706474517e-02  7.2720105709786889e-02  4.1072638546067700e-02  0.0000000000000000e+00  0.0000000000000000e+00  4.0578319702089560e-01  7.8166364909132391e-01  1.0998580524359651e+00  1.3373294507561651e+00  1.4775979137550683e+00  1.5119924858537945e+00  1.4402442596828740e+00  1.2703774536426773e+00  1.0179156177755293e+00  7.0447829719374622e-01  3.5589462181066328e-01  -5.3391631254094016e-09  -3.3569299753937765e-01  -6.2625011234659844e-01  -8.5130713389164392e-01  -9.9663274635651022e-01  -1.0551368304371413e+00  -1.0272479356249486e+00  -9.2063909003068334e-01  -7.4933756425183484e-01  -5.3230680448165346e-01  -2.9163300632796763e-01  -5.0481004058933798e-02  1.6899831252893785e-01  3.4762528854962388e-01  4.7084409787929882e-01  5.2993004763822849e-01  5.2265159965854568e-01  4.5333587212802207e-01  3.3233898292673159e-01  1.7497449333851930e-01  0.0000000000000000e+00  0.0000000000000000e+00  3.7630296669633173e-01  7.2178211709850837e-01  1.0075670763480851e+00  1.2099782725611883e+00  1.3125275229650586e+00  1.3072898395747408e+00  1.1955311321889037e+00  9.8754165731401156e-01  7.0169422142405014e-01  3.6281324769029571e-01  -7.3469704476551573e-09  -3.5589463377411623e-01  -6.7492897505964600e-01  -9.3063072418559489e-01  -1.1022378733520770e+00  -1.1764294001960438e+00  -1.1484001143533493e+00  -1.0221918808477686e+00  -8.1025836213079250e-01  -5.3230680603415914e-01  -2.1352250212952686e-01  1.1766598991746291e-01  4.3208431565011984e-01  7.0235479631086495e-01  9.0526392496134889e-01  1.0237515962828436e+00  1.0483527904633283e+00  9.7797069903417289e-01  8.1991855154824289e-01  5.8923057466106166e-01  3.0730514440785689e-01  0.0000000000000000e+00  0.0000000000000000e+00  3.3138771366479419e-01  6.3216369516066817e-01  8.7351541465403848e-01  1.0320712466233051e+00  1.0920126414031610e+00  1.0465109813021345e+00  8.9836315093415908e-01  6.5977075260478613e-01  3.5128340278029058e-01  -9.0145428463209346e-09  -3.6281326374636813e-01  -7.0447830946865908e-01  -9.9379237648892726e-01  -1.2037937318376644e+00  -1.3141641641521378e+00  -1.3130583988671722e+00  -1.1982008776390731e+00  -9.7715425919358623e-01  -6.6673598326407313e-01  -2.9163300937683984e-01  1.1766598801811753e-01  5.2744307223244136e-01  9.0360717677913549e-01  1.2145890581304259e+00  1.4340274287130754e+00  1.5430171001101733e+00  1.5317279495612293e+00  1.4002576592321989e+00  1.1586467317394142e+00  8.2605556375075873e-01  4.2917421808774775e-01  0.0000000000000000e+00  0.0000000000000000e+00  2.7669146233228831e-01  5.2395933848429277e-01  7.1404680285120292e-01  8.2469550170802941e-01  8.4129186177701576e-01  7.5831616270883262e-01  5.7996251884955041e-01  3.1987197757269220e-01  -8.3729850090211806e-09  -3.5128341997321266e-01  -7.0169423642512541e-01  -1.0179156286595947e+00  -1.2686056100747765e+00  -1.4272652367818128e+00  -1.4747130508318120e+00  -1.4009453047800773e+00  -1.2062145907037516e+00  -9.0122715169657597e-01  -5.0643546445116483e-01  -5.0481008127064929e-02  4.3208431203582248e-01  9.0360717471185814e-01  1.3264353891405343e+00  1.6660514770820118e+00  1.8939716949288086e+00  1.9901645087243920e+00  1.9447830980213401e+00  1.7590644030461076e+00  1.4453175485030003e+00  1.0260010624743157e+00  5.3196456014469751e-01  0.0000000000000000e+00  0.0000000000000000e+00  2.1799737036326580e-01  4.0855707772927496e-01  5.4579910948312582e-01  6.0921512457040838e-01  5.8577506645948674e-01  4.7133940015938669e-01  2.7124409213133932e-01  -5.6674008004150709e-09  -3.1987199097077867e-01  -6.5977076597884354e-01  -9.8754166824822764e-01  -1.2703774603990969e+00  -1.4778366934910199e+00  -1.5847105291087586e+00  -1.5734808385135257e+00  -1.4361467412343520e+00  -1.1752507049484653e+00  -8.0400415809662229e-01  -3.4549030334432773e-01  1.6899830759051343e-01  7.02354