<?xml version="1.0"?>
<VTKFile type="UnstructuredGrid"  version="0.1"  >
<UnstructuredGrid>
<Piece  NumberOfPoints="1089" NumberOfCells="2048">
<Points>
<DataArray  type="Float64"  NumberOfComponents="3"  format="ascii">0 0 0  0.03125 0 0  0.0625 0 0  0.09375 0 0  0.125 0 0  0.15625 0 0  0.1875 0 0  0.21875 0 0  0.25 0 0  0.28125 0 0  0.3125 0 0  0.34375 0 0  0.375 0 0  0.40625 0 0  0.4375 0 0  0.46875 0 0  0.5 0 0  0.53125 0 0  0.5625 0 0  0.59375 0 0  0.625 0 0  0.65625 0 0  0.6875 0 0  0.71875 0 0  0.75 0 0  0.78125 0 0  0.8125 0 0  0.84375 0 0  0.875 0 0  0.90625 0 0  0.9375 0 0  0.96875 0 0  1 0 0  0 0.03125 0  0.03125 0.03125 0  0.0625 0.03125 0  0.09375 0.03125 0  0.125 0.03125 0  0.15625 0.03125 0  0.1875 0.03125 0  0.21875 0.03125 0  0.25 0.03125 0  0.28125 0.03125 0  0.3125 0.03125 0  0.34375 0.03125 0  0.375 0.03125 0  0.40625 0.03125 0  0.4375 0.03125 0  0.46875 0.03125 0  0.5 0.03125 0  0.53125 0.03125 0  0.5625 0.03125 0  0.59375 0.03125 0  0.625 0.03125 0  0.65625 0.03125 0  0.6875 0.03125 0  0.71875 0.03125 0  0.75 0.03125 0  0.78125 0.03125 0  0.8125 0.03125 0  0.84375 0.03125 0  0.875 0.03125 0  0.90625 0.03125 0  0.9375 0.03125 0  0.96875 0.03125 0  1 0.03125 0  0 0.0625 0  0.03125 0.0625 0  0.0625 0.0625 0  0.09375 0.0625 0  0.125 0.0625 0  0.15625 0.0625 0  0.1875 0.0625 0  0.21875 0.0625 0  0.25 0.0625 0  0.28125 0.0625 0  0.3125 0.0625 0  0.34375 0.0625 0  0.375 0.0625 0  0.40625 0.0625 0  0.4375 0.0625 0  0.46875 0.0625 0  0.5 0.0625 0  0.53125 0.0625 0  0.5625 0.0625 0  0.59375 0.0625 0  0.625 0.0625 0  0.65625 0.0625 0  0.6875 0.0625 0  0.71875 0.0625 0  0.75 0.0625 0  0.78125 0.0625 0  0.8125 0.0625 0  0.84375 0.0625 0  0.875 0.0625 0  0.90625 0.0625 0  0.9375 0.0625 0  0.96875 0.0625 0  1 0.0625 0  0 0.09375 0  0.03125 0.09375 0  0.0625 0.09375 0  0.09375 0.09375 0  0.125 0.09375 0  0.15625 0.09375 0  0.1875 0.09375 0  0.21875 0.09375 0  0.25 0.09375 0  0.28125 0.09375 0  0.3125 0.09375 0  0.34375 0.09375 0  0.375 0.09375 0  0.40625 0.09375 0  0.4375 0.09375 0  0.46875 0.09375 0  0.5 0.09375 0  0.53125 0.09375 0  0.5625 0.09375 0  0.59375 0.09375 0  0.625 0.09375 0  0.65625 0.09375 0  0.6875 0.09375 0  0.71875 0.09375 0  0.75 0.09375 0  0.78125 0.09375 0  0.8125 0.09375 0  0.84375 0.09375 0  0.875 0.09375 0  0.90625 0.09375 0  0.9375 0.09375 0  0.96875 0.09375 0  1 0.09375 0  0 0.125 0  0.03125 0.125 0  0.0625 0.125 0  0.09375 0.125 0  0.125 0.125 0  0.15625 0.125 0  0.1875 0.125 0  0.21875 0.125 0  0.25 0.125 0  0.28125 0.125 0  0.3125 0.125 0  0.34375 0.125 0  0.375 0.125 0  0.40625 0.125 0  0.4375 0.125 0  0.46875 0.125 0  0.5 0.125 0  0.53125 0.125 0  0.5625 0.125 0  0.59375 0.125 0  0.625 0.125 0  0.65625 0.125 0  0.6875 0.125 0  0.71875 0.125 0  0.75 0.125 0  0.78125 0.125 0  0.8125 0.125 0  0.84375 0.125 0  0.875 0.125 0  0.90625 0.125 0  0.9375 0.125 0  0.96875 0.125 0  1 0.125 0  0 0.15625 0  0.03125 0.15625 0  0.0625 0.15625 0  0.09375 0.15625 0  0.125 0.15625 0  0.15625 0.15625 0  0.1875 0.15625 0  0.21875 0.15625 0  0.25 0.15625 0  0.28125 0.15625 0  0.3125 0.15625 0  0.34375 0.15625 0  0.375 0.15625 0  0.40625 0.15625 0  0.4375 0.15625 0  0.46875 0.15625 0  0.5 0.15625 0  0.53125 0.15625 0  0.5625 0.15625 0  0.59375 0.15625 0  0.625 0.15625 0  0.65625 0.15625 0  0.6875 0.15625 0  0.71875 0.15625 0  0.75 0.15625 0  0.78125 0.15625 0  0.8125 0.15625 0  0.84375 0.15625 0  0.875 0.15625 0  0.90625 0.15625 0  0.9375 0.15625 0  0.96875 0.15625 0  1 0.15625 0  0 0.1875 0  0.03125 0.1875 0  0.0625 0.1875 0  0.09375 0.1875 0  0.125 0.1875 0  0.15625 0.1875 0  0.1875 0.1875 0  0.21875 0.1875 0  0.25 0.1875 0  0.28125 0.1875 0  0.3125 0.1875 0  0.34375 0.1875 0  0.375 0.1875 0  0.40625 0.1875 0  0.4375 0.1875 0  0.46875 0.1875 0  0.5 0.1875 0  0.53125 0.1875 0  0.5625 0.1875 0  0.59375 0.1875 0  0.625 0.1875 0  0.65625 0.1875 0  0.6875 0.1875 0  0.71875 0.1875 0  0.75 0.1875 0  0.78125 0.1875 0  0.8125 0.1875 0  0.84375 0.1875 0  0.875 0.1875 0  0.90625 0.1875 0  0.9375 0.1875 0  0.96875 0.1875 0  1 0.1875 0  0 0.21875 0  0.03125 0.21875 0  0.0625 0.21875 0  0.09375 0.21875 0  0.125 0.21875 0  0.15625 0.21875 0  0.1875 0.21875 0  0.21875 0.21875 0  0.25 0.21875 0  0.28125 0.21875 0  0.3125 0.21875 0  0.34375 0.21875 0  0.375 0.21875 0  0.40625 0.21875 0  0.4375 0.21875 0  0.46875 0.21875 0  0.5 0.21875 0  0.53125 0.21875 0  0.5625 0.21875 0  0.59375 0.21875 0  0.625 0.21875 0  0.65625 0.21875 0  0.6875 0.21875 0  0.71875 0.21875 0  0.75 0.21875 0  0.78125 0.21875 0  0.8125 0.21875 0  0.84375 0.21875 0  0.875 0.21875 0  0.90625 0.21875 0  0.9375 0.21875 0  0.96875 0.21875 0  1 0.21875 0  0 0.25 0  0.03125 0.25 0  0.0625 0.25 0  0.09375 0.25 0  0.125 0.25 0  0.15625 0.25 0  0.1875 0.25 0  0.21875 0.25 0  0.25 0.25 0  0.28125 0.25 0  0.3125 0.25 0  0.34375 0.25 0  0.375 0.25 0  0.40625 0.25 0  0.4375 0.25 0  0.46875 0.25 0  0.5 0.25 0  0.53125 0.25 0  0.5625 0.25 0  0.59375 0.25 0  0.625 0.25 0  0.65625 0.25 0  0.6875 0.25 0  0.71875 0.25 0  0.75 0.25 0  0.78125 0.25 0  0.8125 0.25 0  0.84375 0.25 0  0.875 0.25 0  0.90625 0.25 0  0.9375 0.25 0  0.96875 0.25 0  1 0.25 0  0 0.28125 0  0.03125 0.28125 0  0.0625 0.28125 0  0.09375 0.28125 0  0.125 0.28125 0  0.15625 0.28125 0  0.1875 0.28125 0  0.21875 0.28125 0  0.25 0.28125 0  0.28125 0.28125 0  0.3125 0.28125 0  0.34375 0.28125 0  0.375 0.28125 0  0.40625 0.28125 0  0.4375 0.28125 0  0.46875 0.28125 0  0.5 0.28125 0  0.53125 0.28125 0  0.5625 0.28125 0  0.59375 0.28125 0  0.625 0.28125 0  0.65625 0.28125 0  0.6875 0.28125 0  0.71875 0.28125 0  0.75 0.28125 0  0.78125 0.28125 0  0.8125 0.28125 0  0.84375 0.28125 0  0.875 0.28125 0  0.90625 0.28125 0  0.9375 0.28125 0  0.96875 0.28125 0  1 0.28125 0  0 0.3125 0  0.03125 0.3125 0  0.0625 0.3125 0  0.09375 0.3125 0  0.125 0.3125 0  0.15625 0.3125 0  0.1875 0.3125 0  0.21875 0.3125 0  0.25 0.3125 0  0.28125 0.3125 0  0.3125 0.3125 0  0.34375 0.3125 0  0.375 0.3125 0  0.40625 0.3125 0  0.4375 0.3125 0  0.46875 0.3125 0  0.5 0.3125 0  0.53125 0.3125 0  0.5625 0.3125 0  0.59375 0.3125 0  0.625 0.3125 0  0.65625 0.3125 0  0.6875 0.3125 0  0.71875 0.3125 0  0.75 0.3125 0  0.78125 0.3125 0  0.8125 0.3125 0  0.84375 0.3125 0  0.875 0.3125 0  0.90625 0.3125 0  0.9375 0.3125 0  0.96875 0.3125 0  1 0.3125 0  0 0.34375 0  0.03125 0.34375 0  0.0625 0.34375 0  0.09375 0.34375 0  0.125 0.34375 0  0.15625 0.34375 0  0.1875 0.34375 0  0.21875 0.34375 0  0.25 0.34375 0  0.28125 0.34375 0  0.3125 0.34375 0  0.34375 0.34375 0  0.375 0.34375 0  0.40625 0.34375 0  0.4375 0.34375 0  0.46875 0.34375 0  0.5 0.34375 0  0.53125 0.34375 0  0.5625 0.34375 0  0.59375 0.34375 0  0.625 0.34375 0  0.65625 0.34375 0  0.6875 0.34375 0  0.71875 0.34375 0  0.75 0.34375 0  0.78125 0.34375 0  0.8125 0.34375 0  0.84375 0.34375 0  0.875 0.34375 0  0.90625 0.34375 0  0.9375 0.34375 0  0.96875 0.34375 0  1 0.34375 0  0 0.375 0  0.03125 0.375 0  0.0625 0.375 0  0.09375 0.375 0  0.125 0.375 0  0.15625 0.375 0  0.1875 0.375 0  0.21875 0.375 0  0.25 0.375 0  0.28125 0.375 0  0.3125 0.375 0  0.34375 0.375 0  0.375 0.375 0  0.40625 0.375 0  0.4375 0.375 0  0.46875 0.375 0  0.5 0.375 0  0.53125 0.375 0  0.5625 0.375 0  0.59375 0.375 0  0.625 0.375 0  0.65625 0.375 0  0.6875 0.375 0  0.71875 0.375 0  0.75 0.375 0  0.78125 0.375 0  0.8125 0.375 0  0.84375 0.375 0  0.875 0.375 0  0.90625 0.375 0  0.9375 0.375 0  0.96875 0.375 0  1 0.375 0  0 0.40625 0  0.03125 0.40625 0  0.0625 0.40625 0  0.09375 0.40625 0  0.125 0.40625 0  0.15625 0.40625 0  0.1875 0.40625 0  0.21875 0.40625 0  0.25 0.40625 0  0.28125 0.40625 0  0.3125 0.40625 0  0.34375 0.40625 0  0.375 0.40625 0  0.40625 0.40625 0  0.4375 0.40625 0  0.46875 0.40625 0  0.5 0.40625 0  0.53125 0.40625 0  0.5625 0.40625 0  0.59375 0.40625 0  0.625 0.40625 0  0.65625 0.40625 0  0.6875 0.40625 0  0.71875 0.40625 0  0.75 0.40625 0  0.78125 0.40625 0  0.8125 0.40625 0  0.84375 0.40625 0  0.875 0.40625 0  0.90625 0.40625 0  0.9375 0.40625 0  0.96875 0.40625 0  1 0.40625 0  0 0.4375 0  0.03125 0.4375 0  0.0625 0.4375 0  0.09375 0.4375 0  0.125 0.4375 0  0.15625 0.4375 0  0.1875 0.4375 0  0.21875 0.4375 0  0.25 0.4375 0  0.28125 0.4375 0  0.3125 0.4375 0  0.34375 0.4375 0  0.375 0.4375 0  0.40625 0.4375 0  0.4375 0.4375 0  0.46875 0.4375 0  0.5 0.4375 0  0.53125 0.4375 0  0.5625 0.4375 0  0.59375 0.4375 0  0.625 0.4375 0  0.65625 0.4375 0  0.6875 0.4375 0  0.71875 0.4375 0  0.75 0.4375 0  0.78125 0.4375 0  0.8125 0.4375 0  0.84375 0.4375 0  0.875 0.4375 0  0.90625 0.4375 0  0.9375 0.4375 0  0.96875 0.4375 0  1 0.4375 0  0 0.46875 0  0.03125 0.46875 0  0.0625 0.46875 0  0.09375 0.46875 0  0.125 0.46875 0  0.15625 0.46875 0  0.1875 0.46875 0  0.21875 0.46875 0  0.25 0.46875 0  0.28125 0.46875 0  0.3125 0.46875 0  0.34375 0.46875 0  0.375 0.46875 0  0.40625 0.46875 0  0.4375 0.46875 0  0.46875 0.46875 0  0.5 0.46875 0  0.53125 0.46875 0  0.5625 0.46875 0  0.59375 0.46875 0  0.625 0.46875 0  0.65625 0.46875 0  0.6875 0.46875 0  0.71875 0.46875 0  0.75 0.46875 0  0.78125 0.46875 0  0.8125 0.46875 0  0.84375 0.46875 0  0.875 0.46875 0  0.90625 0.46875 0  0.9375 0.46875 0  0.96875 0.46875 0  1 0.46875 0  0 0.5 0  0.03125 0.5 0  0.0625 0.5 0  0.09375 0.5 0  0.125 0.5 0  0.15625 0.5 0  0.1875 0.5 0  0.21875 0.5 0  0.25 0.5 0  0.28125 0.5 0  0.3125 0.5 0  0.34375 0.5 0  0.375 0.5 0  0.40625 0.5 0  0.4375 0.5 0  0.46875 0.5 0  0.5 0.5 0  0.53125 0.5 0  0.5625 0.5 0  0.59375 0.5 0  0.625 0.5 0  0.65625 0.5 0  0.6875 0.5 0  0.71875 0.5 0  0.75 0.5 0  0.78125 0.5 0  0.8125 0.5 0  0.84375 0.5 0  0.875 0.5 0  0.90625 0.5 0  0.9375 0.5 0  0.96875 0.5 0  1 0.5 0  0 0.53125 0  0.03125 0.53125 0  0.0625 0.53125 0  0.09375 0.53125 0  0.125 0.53125 0  0.15625 0.53125 0  0.1875 0.53125 0  0.21875 0.53125 0  0.25 0.53125 0  0.28125 0.53125 0  0.3125 0.53125 0  0.34375 0.53125 0  0.375 0.53125 0  0.40625 0.53125 0  0.4375 0.53125 0  0.46875 0.53125 0  0.5 0.53125 0  0.53125 0.53125 0  0.5625 0.53125 0  0.59375 0.53125 0  0.625 0.53125 0  0.65625 0.53125 0  0.6875 0.53125 0  0.71875 0.53125 0  0.75 0.53125 0  0.78125 0.531
[...]
<PointData  Scalars="theta"> 
<DataArray  type="Float64"  Name="theta"  format="ascii">-1.3772928887477429e-04  -1.6376282430096483e-04  -2.5704595304269560e-05  -2.2404948690002655e-04  -7.1920665728883286e-04  0.0000000000000000e+00  -3.3368737373248337e-04  -5.4626277267372028e-05  -2.2130965201328334e-05  -6.2620150695826687e-04  -4.8580341496725325e-04  0.0000000000000000e+00  -8.0187302657783383e-04  -4.4108116634946520e-04  -1.6021949092966776e-04  -1.7045169091029356e-05  -1.1183124919074421e-05  -6.8562150307341862e-05  -1.9976174625368869e-04  -4.4614514122844810e-04  -7.6761440434443317e-04  -1.0813263586065434e-03  0.0000000000000000e+00  -6.1930995988686147e-04  -9.1028478415048286e-04  -3.6816296800088816e-04  -6.4128125898545521e-04  -3.6443317341528284e-04  0.0000000000000000e+00  -3.0319454508474515e-04  -2.2767292813272578e-04  -1.5841849076419121e-04  -1.0068638882059781e-04  0.0000000000000000e+00  -6.9913831924546212e-05  -1.1151389483719999e-04  -2.1211662358182703e-05  -2.0337442548091892e-04  -6.7434028658002127e-04  -9.3634120527920155e-04  -2.8778576184283462e-04  -5.1240811726367502e-05  -1.7045169091029349e-05  -5.8739264555341753e-04  -4.1897691338565600e-04  -1.1949317819690611e-03  -7.5184966805184428e-04  -4.0037863972794250e-04  -1.3221455948133641e-04  -1.1606866220175103e-05  -5.6767527253716450e-06  -3.4803364572159014e-05  -1.3602727273004183e-04  -3.6816296800088827e-04  -6.9677971877742497e-04  -1.0138698233106431e-03  -1.3308635876385832e-03  -5.3411846732259445e-04  -8.5386985120239952e-04  -2.8355744928168372e-04  -6.0153782939458304e-04  -3.1430220831849665e-04  -3.9473153217033980e-04  -2.8428031686007695e-04  -2.0666349919923053e-04  -1.3072835800782891e-04  -5.5965880419957991e-05  -6.4201677412466555e-04  0.0000000000000000e+00  -5.6606432550364084e-05  -1.6337126207913667e-05  -1.8076273446591902e-04  -6.3060567826700778e-04  -8.7454019887699803e-04  -2.3748338923229955e-04  -4.8044248915058110e-05  -1.1606866220175097e-05  -5.5074924699760380e-04  -3.4574350295777349e-04  -1.1160631107076631e-03  -7.0308815788124490e-04  -3.5586351414552947e-04  -1.0183105445939028e-04  -5.8918513318240267e-06  0.0000000000000000e+00  0.0000000000000000e+00  -6.9049858316261052e-05  -2.8355744928168383e-04  -6.1930995988686147e-04  -9.4811489143825612e-04  -1.2430230561780603e-03  -4.4075934493452483e-04  -8.0060276740545491e-04  -1.9308775184158843e-04  -5.6401200983288713e-04  -2.5936499845129944e-04  -3.6867820266901058e-04  -2.6584320349698644e-04  -1.8368612051987386e-04  -2.1777521098013882e-04  -5.2445941524310709e-05  -5.9964196188282961e-04  -7.9294615146353236e-04  0.0000000000000000e+00  -1.1124726149954503e-05  -1.5589724198786627e-04  -5.8637804364004256e-04  -8.1818357412180348e-04  -1.8290863001006031e-04  -4.4928319984503772e-05  -5.8918513318240242e-06  -5.1503018486313487e-04  -2.6629007892011564e-04  -1.0441424031015017e-03  -6.5377695243385076e-04  -3.0691138050834206e-04  -6.9341607575576776e-05  0.0000000000000000e+00  -3.9473153217033959e-04  -7.8314716707378860e-04  0.0000000000000000e+00  -1.9308775184158851e-04  -5.3411846732259445e-04  -8.8161869508595974e-04  -1.1629208675890887e-03  -3.3947084975802932e-04  -7.4867935552631426e-04  -9.8014770418333242e-05  -5.2743278592358011e-04  -1.9976174625368869e-04  -3.4492005049954202e-04  -2.4719824599416429e-04  -2.4856128950836651e-04  -2.0250151016521905e-04  -4.9195602371103497e-05  -5.6100017380185396e-04  -7.4060959945994082e-04  -3.6283293143661908e-04  -5.6471084735047624e-06  -1.2864780092722384e-04  -5.4006210946747340e-04  -7.6672443214600733e-04  -1.2455118442676990e-04  -4.1777264754333992e-05  0.0000000000000000e+00  -4.7890845678008983e-04  -1.8132957820948199e-04  -9.7847172250659867e-04  -6.0213741609565672e-04  -2.5326602112056410e-04  -3.5199030917995506e-05  -6.4384387216132150e-05  -3.6867820266901037e-04  -7.3145737406530632e-04  -1.1116603517552582e-03  -9.8014770418333283e-05  -4.4075934493452483e-04  -8.1198274283674203e-04  -1.0897796900775317e-03  -2.3116184519778558e-04  -6.9617060381325186e-04  0.0000000000000000e+00  -4.9044119934253856e-04  -1.3602727273004183e-04  -3.2322652057503102e-04  -5.4246023632708034e-04  -2.0511500321073795e-04  -1.8650662987189137e-04  -4.6126626144512756e-05  -5.2571642024678905e-04  -6.9288365462578103e-04  -3.3888499430406651e-04  0.0000000000000000e+00  -9.9083953187093532e-05  -4.9022572091838830e-04  -7.1920665728883286e-04  -6.3224392176551992e-05  -3.8477425912722230e-05  -3.9921908631460800e-04  -4.4108116634946520e-04  -9.2046112758290070e-05  -9.1783090154822031e-04  -5.4657278065386485e-04  -1.9506434155673949e-04  0.0000000000000000e+00  -6.0134846659642755e-05  -3.4492005049954180e-04  -6.8432121176247290e-04  -1.0382878160508013e-03  0.0000000000000000e+00  -3.3947084975802932e-04  -7.3705379159617955e-04  -1.0222405537386960e-03  -1.1734185607550888e-04  -6.4118254242723292e-04  -7.8314716707378860e-04  -4.5170297823989269e-04  -6.9049858316261052e-05  -3.6909696807769459e-05  -5.0665641999476983e-04  -1.5797864580367277e-04  -1.6929598555833069e-04  -4.3135065403774356e-05  -4.9313512578342243e-04  -6.4930517238312902e-04  -3.1704675921357571e-04  -6.6710844407664156e-05  -6.7470975680372991e-05  -4.3572116606691231e-04  -6.7434028658002127e-04  0.0000000000000000e+00  -3.4926767730007142e-05  -3.7286956632114141e-04  -4.0037863972794250e-04  0.0000000000000000e+00  -8.6057372649355802e-04  -4.8580341496725325e-04  -1.3282858648596074e-04  -6.6823984753221249e-05  -5.6259670890409414e-05  -3.2322652057503086e-04  -6.4128125898545521e-04  -9.7137905998423727e-04  -1.3308635876385832e-03  -2.3116184519778558e-04  -6.5510625784115188e-04  -9.5846997657174674e-04  0.0000000000000000e+00  -5.8201486197877097e-04  -7.3145737406530632e-04  -4.1002028149499548e-04  -2.3943284375111544e-05  -3.3994329995830046e-05  -4.7400675360079382e-04  -1.0757517263074119e-04  -1.5047322302822084e-04  -4.0109780383298210e-05  -4.6237180742602567e-04  -6.0906446046458018e-04  -2.9710630243668534e-04  -6.2307751497633448e-05  -3.4249464961600543e-05  -3.7578391512093316e-04  -6.3060567826700778e-04  -3.8844933374981128e-04  -3.1043519980463100e-05  -3.4884131666632117e-04  -3.5586351414552947e-04  -1.1949317819690615e-03  -8.0476087413745021e-04  -4.1897691338565600e-04  -6.7426148397513314e-05  -6.2413424279891290e-05  -5.2721254227659160e-05  -3.0319454508474498e-04  -6.0153782939458304e-04  -9.1028478415048307e-04  -1.2430230561780603e-03  -1.1734185607550888e-04  -5.6499067193345096e-04  -8.9630802386128205e-04  -1.1116603517552577e-03  -5.1730495465349363e-04  -6.8432121176247290e-04  -2.6444938922601333e-04  0.0000000000000000e+00  -3.0857367397567934e-05  -4.4419439656684753e-04  -5.4607067240417479e-05  -1.2977431732505434e-04  -3.6941650252816311e-05  -4.3238449939299496e-04  -5.7106910601141384e-04  -2.7869312842536658e-04  -5.8292550624075988e-05  0.0000000000000000e+00  -3.1010025378058487e-04  -5.8637804364004256e-04  -3.6281064602929660e-04  -2.6773212746800278e-05  -3.2690116116928169e-04  -3.0691138050834206e-04  -1.1160631107076636e-03  -7.4831883574470715e-04  -3.4574350295777349e-04  0.0000000000000000e+00  -5.8391413700680291e-05  -4.9453852559544977e-05  -2.8428031686007684e-04  -5.6401200983288713e-04  -8.5386985120239974e-04  -1.1629208675890887e-03  0.0000000000000000e+00  -4.6623536479426750e-04  -8.3344531082404048e-04  -1.0382878160508007e-03  -4.4614514122844789e-04  -4.2227853264443902e-04  -2.4356146438603258e-04  -5.1578742010558519e-05  -2.7426566029695840e-05  -4.1666543251674603e-04  0.0000000000000000e+00  -1.0709092943414212e-04  -3.3532711904115814e-05  -4.0205914027147507e-04  -5.3403219131403247e-04  -2.6130737554445389e-04  -5.4626277267371994e-05  -7.1707610747361213e-04  -2.3883780995434967e-04  -5.4006210946747340e-04  -3.3943060762543754e-04  -2.2093495046568243e-05  -3.0664144969313464e-04  -2.5326602112056410e-04  -1.0441424031015021e-03  -6.8921176938646959e-04  -2.6629007892011564e-04  -3.9921908631460821e-04  -5.4718922412871284e-05  -4.6368765874892139e-05  -2.6584320349698633e-04  -5.2743278592358011e-04  -8.0060276740545513e-04  -1.0897796900775317e-03  -1.4077878946985405e-03  -3.5909236478574581e-04  -7.6761440434443317e-04  -9.7137905998423684e-04  -2.0700212166739698e-05  -3.9440702794900020e-04  -2.2108585729947857e-04  -4.8174408048494296e-05  -2.3653802393843675e-05  -3.9067253385905739e-04  -5.4246023632708012e-04  -8.2480948468116624e-05  -2.9804458862083179e-05  -3.7030190639092972e-04  -4.9657775433309241e-04  -2.4436018145540241e-04  -5.1240811726367475e-05  -6.6974717987864458e-04  -1.6263602277308544e-04  -4.9022572091838830e-04  -3.1808233276245693e-04  -1.7016309747663951e-05  -2.8751219273035535e-04  -1.9506434155673949e-04  -9.7847172250659911e-04  -6.2561200015693588e-04  -1.8132957820948199e-04  -3.7286956632114163e-04  -5.1327715185569998e-05  -4.3361501065338764e-05  -2.4719824599416423e-04  -4.9044119934253856e-04  -7.4867935552631448e-04  -1.0222405537386960e-03  -1.3148701546667255e-03  -2.4452306788484712e-04  -6.9677971877742497e-04  -2.8458591079786005e-05  -1.7082000553834644e-05  -3.6899087337603071e-04  -1.9650496380109128e-04  -4.5069980098036568e-05  -1.9519329673400728e-05  -3.6533531081751089e-04  -5.0665641999476962e-04  -5.6165200208334952e-05  -2.5704595304269550e-05  -3.3613081872554566e-04  -4.5735482838845667e-04  -2.2722193929353528e-04  -4.8044248915058083e-05  -6.2658771099918234e-04  -8.2556932181450642e-05  -4.3572116606691231e-04  -2.9836916850088945e-04  -1.1587214520866317e-05  -2.6886547476834673e-04  -1.3282858648596074e-04  -9.1783090154822075e-04  -5.5605485102486901e-04  -9.2046112758290070e-05  -3.4884131666632133e-04  -4.8125731063463575e-05  -4.0320334941898707e-05  -2.2767292813272573e-04  -4.5170297823989269e-04  -6.9617060381325208e-04  -9.5846997657174674e-04  -1.2301380360019557e-03  -1.2412424989225894e-04  -1.8302339300819978e-04  -2.6462643038636185e-05  -1.3156479403604697e-05  -3.4578342416610139e-04  -1.6947399022275501e-04  -4.2235332009188599e-05  -1.5033699244472732e-05  -3.3971245774144939e-04  -4.7400675360079360e-04  -2.8510452638321969e-05  -2.1211662358182696e-05  -2.9875893090991625e-04  -4.1515058459353074e-04  -2.0927447946445746e-04  -4.4928319984503752e-05  -5.8717887048902575e-04  0.0000000000000000e+00  -3.7578391512093311e-04  -2.7975596242670720e-04  -5.8818757804091391e-06  -2.5000854976485031e-04  -6.7426148397513314e-05  -8.6057372649355846e-04  -4.7956465100440797e-04  0.0000000000000000e+00  -3.2690116116928180e-04  -4.5004517575667246e-05  -3.7135573849221596e-05  -2.0666349919923045e-04  -4.1002028149499548e-04  -6.4118254242723314e-04  -8.9630802386128205e-04  -1.1527692769036121e-03  0.0000000000000000e+00  -1.7151225166585501e-04  -2.4372452168934978e-05  -8.9588724846675581e-06  -3.2435348374685734e-04  -1.3985145521827890e-04  -3.9617795755891719e-05  -1.0237160745843022e-05  -3.1287976848746134e-04  -4.4419439656684736e-04  0.0000000000000000e+00  -1.6337126207913664e-05  -2.5766203131254801e-04  -3.6899307623756376e-04  -1.8996284087851377e-04  -4.1777264754333979e-05  -5.5078843841332753e-04  -1.0132843590006952e-03  -3.1010025378058487e-04  -2.6161227787537607e-04  0.0000000000000000e+00  -2.3026125591733970e-04  0.0000000000000000e+00  -8.0476087413745064e-04  -3.9574104690672120e-04  -7.6473143308063987e-04  -3.0664144969313475e-04  -4.1848118214707700e-05  -3.3708740425991945e-05  -1.8368612051987380e-04  -3.6443317341528284e-04  -5.8201486197877119e-04  -8.3344531082404048e-04  -7.3395978286485919e-06  -2.8616873751604748e-04  -1.6088277356627993e-04  -2.2123386783876359e-05  -4.5476827060072619e-06  -3.0411929445648106e-04  -1.0771295694229385e-04  -3.7146313195162343e-05  -5.1965645188234047e-06  -2.8400753798259567e-04  -4.1666543251674582e-04  -5.8938206111775878e-05  -1.1124726149954501e-05  -2.1262501689016877e-04  -3.1823485669221503e-04  -1.6884228428876917e-04  -3.8477425912722216e-05  -5.1642852529303572e-04  -9.4640490009748285e-04  -2.3883780995434967e-04  -2.4326405704806360e-04  -6.6823984753221235e-05  -2.0901297869786931e-04  -1.0439652477872417e-03  -7.4831883574470748e-04  -3.0479796065926518e-04  -7.1425712742654820e-04  -2.8751219273035546e-04  -3.8542682908081326e-05  -2.9960916080748112e-05  -1.5841849076419115e-04  -3.1430220831849665e-04  -5.1730495465349385e-04  -7.9928932996102869e-06  -3.7257101461727337e-06  -2.6728084079674609e-04  -1.5084640072916410e-04  -1.9663651814843692e-05  0.0000000000000000e+00  -2.8439551628665070e-04  -7.3346874691120233e-05  -3.4737174233434060e-05  0.0000000000000000e+00  -2.5243085040446255e-04  -3.9067253385905722e-04  -5.5048127972832776e-05  -5.6471084735047616e-06  -1.6376282430096480e-04  -2.6261025512580989e-04  -1.4561655381747452e-04  -3.4926767730007128e-05  -4.8293534725690795e-04  -8.8541721092120422e-04  -1.6263602277308541e-04  -2.2404948690002668e-04  -6.2413424279891277e-05  -1.8577437885295225e-04  -9.7506076873791992e-04  -6.8921176938646980e-04  -2.0755142613493668e-04  -6.6822937368716563e-04  -2.6886547476834684e-04  -3.4986002875435926e-05  -2.5839530466381488e-05  -1.3072835800782885e-04  -2.5936499845129944e-04  -3.5579581015322178e-05  -5.4427411511884304e-06  0.0000000000000000e+00  -2.5005688005900339e-04  -1.4106319722996904e-04  -1.6958744812094015e-05  -2.7155907030145042e-04  -2.6444938922601333e-04  -3.7232175605060717e-05  -3.2300876713577216e-05  -3.2335881289469832e-04  -2.1770678280000805e-04  -3.6533531081751078e-04  -5.1500747651579880e-05  0.0000000000000000e+00  -1.1151389483719996e-04  -2.0226122823550037e-04  -1.2016408493408035e-04  -3.1043519980463087e-05  -4.4906459597280468e-04  -8.2972945158979450e-04  -8.2556932181450629e-05  -2.0337442548091903e-04  -5.8391413700680277e-05  -1.6021949092966768e-04  -9.1222645428577981e-04  -6.2561200015693610e-04  -1.0535678824052600e-04  -6.2620150695826687e-04  -2.5000854976485037e-04  -3.1096169210270987e-05  -2.1323012062976129e-05  -1.0068638882059778e-04  -2.4227828706731093e-05  -2.4227828706731083e-05  -2.7628320247770729e-06  -2.0945463808354884e-04  -2.3432970965376462e-04  -1.3116970631890724e-04  -1.3994508169244371e-05  -2.5363545042052027e-04  -2.4356146438603258e-04  0.0000000000000000e+00  -2.9749544350763361e-05  -3.0201627242628504e-04  -1.7965358781870985e-04  -3.3971245774144928e-04  -4.8261640476754387e-05  -3.6283293143661913e-04  -5.6606432550364077e-05  -1.3772928887477429e-04  -9.2549833581016832e-05  -2.6773212746800268e-05  -4.1359456688168210e-04  -7.7830693833733739e-04  0.0000000000000000e+00  -1.8076273446591910e-04  -5.4718922412871271e-05  -1.3221455948133636e-04  -8.5485254443241389e-04  -5.5605485102486923e-04  0.0000000000000000e+00  -5.8739264555341753e-04  -2.3026125591733978e-04  -2.6818619615334802e-05  -1.6422887245860907e-05  0.0000000000000000e+00  -1.2298475930120997e-05  -1.2298475930120992e-05  0.0000000000000000e+00  -1.9563007567383110e-04  -2.1980711728702726e-04  -1.2080907370451295e-04  -1.0778506762834022e-05  -2.3729081820999520e-04  -2.2108585729947857e-04  -2.7155907030145036e-04  -2.7004286304638256e-05  -2.8255391065383934e-04  -1.3836837907079628e-04  -3.1287976848746129e-04  -4.5270623534730547e-05  -3.3888499430406662e-04  0.0000000000000000e+00  -6.9913831924546212e-05  -6.3021582909357927e-05  -2.2093495046568232e-05  -3.7542847602737190e-04  -7.2975370642994783e-04  -7.1707610747361234e-04  -1.5589724198786632e-04  -5.1327715185569985e-05  -1.0183105445939024e-04  -8.0187302657783383e-04  -4.7956465100440807e-04  -1.0439652477872417e-03  -5.5074924699760380e-04  -2.0901297869786939e-04  -2.2130965201328344e-05  -2.7381150449752158e-05  -1.3948640618327300e-04  0.0000000000000000e+00  0.0000000000000000e+00  -4.2256123581735431e-05  -1.8302339300819981e-04  -2.0609485877455571e-04  -1.0966093382976811e-04  -7.3395978286485894e-06  -2.2236656124611346e-04  -1.9650496380109128e-04  -2.5363545042052021e-04  -2.4001880389749204e-05  -2.6478285992141806e-04  -9.4221609442550941e-05  -2.8400753798259561e-04  -4.2446499818488904e-05  -3.1704675921357577e-04  -7.9294615146353236e-04  0.0000000000000000e+00  -3.1990874207952844e-05  -1.7016309747663944e-05  -3.3368737373248332e-04  -6.8242523866548143e-04  -6.6974717987864480e-04  -1.2864780092722389e-04  -4.8125731063463554e-05  -6.9341607575576749e-05  -7.5184966805184428e-04  -3.9574104690672131e-04  -9.7506076873791992e-04  -5.1503018486313487e-04  -1.8577437885295233e-04  -1.2963640009926339e-05  -2.5659030190900967e-05  -1.3027993290948137e-04  -1.3948640618327294e-04  -3.1335387588990292e-05  -3.9467107196166406e-05  -1.7151225166585503e-04  -1.9272849448755204e-04  -9.7468549530161524e-05  -3.7257101461727320e-06  -2.0858538544155168e-04  -1.6947399022275501e-04  -2.3729081820999515e-04  -2.0700212166739688e-05  -2.4837293244777683e-04  -4.7828561521261519e-05  -2.5243085040446250e-04  -3.9693615138804682e-05  -2.9710630243668539e-04  -7.4060959945994082e-04  -6.4201677412466576e-04  0.0000000000000000e+00  -1.1587214520866311e-05  -2.8778576184283457e-04  -6.3456323051030441e-04  -6.2658771099918255e-04  -9.9083953187093559e-05  -4.5004517575667232e-05  -3.5199030917995492e-05  -7.0308815788124490e-04  -3.0479796065926523e-04  -9.1222645428577981e-04  -4.7890845678008983e-04  -2.5862372317625482e-05  -1.2054432951451732e-05  -2.4068810851924051e-05  -1.2188450717428975e-04  -1.3027993290948132e-04  -2.9267168783618730e-05  -3.6923790201380416e-05  -1.6088277356627996e-04  -1.7921144931944404e-04  -8.4060899483542586e-05  0.0000000000000000e+00  -1.9557317381528656e-04  -1.3985145521827890e-04  -2.2236656124611338e-04  -1.7082000553834637e-05  -2.3287864864450373e-04  0.0000000000000000e+00  -2.1770678280000799e-04  -3.6909696807769452e-05  -2.7869312842536664e-04  -6.9288365462578103e-04  -5.9964196188282972e-04  -6.4048169120459344e-05  -5.8818757804091357e-06  -2.3748338923229950e-04  -5.8444131832170634e-04  -5.8717887048902596e-04  -6.7470975680373018e-05  -4.1848118214707679e-05  0.0000000000000000e+00  -6.5377695243385076e-04  -2.0755142613493671e-04  -8.5485254443241389e-04  -6.4441302282647767e-05  -2.1341861363285594e-05  -1.1102295795017176e-05  -2.2567322817492507e-05  -1.1421865765382750e-04  -1.2188450717428968e-04  -2.7381150449752152e-05  -3.4601491609286607e-05  -1.5084640072916412e-04  -1.6505616881452560e-04  -6.9367807439235199e-05  -5.1578742010558540e-05  -1.8288919760392391e-04  -1.0771295694229385e-04  -2.0858538544155162e-04  -1.3156479403604692e-05  -2.1777521098013890e-04  -6.1934044550341564e-04  -1.7965358781870980e-04  -3.3994329995830039e-05  -2.6130737554445394e-04  -6.4930517238312902e-04  -5.6100017380185407e-04  -5.9820819851255027e-05  0.0000000000000000e+00  -1.8290863001006028e-04  -5.3050966099299631e-04  -5.5078843841332775e-04  -3.4249464961600556e-05  -3.8542682908081312e-05  -7.6473143308063987e-04  -6.0213741609565672e-04  -1.0535678824052602e-04  -1.2054432951451735e-05  -6.0188005180606080e-05  -1.6437404891526135e-05  -1.0077787099947036e-05  -2.1103710092970451e-05  -1.0713995214852317e-04  -1.1421865765382742e-04  -2.5659030190900960e-05  -3.2457062895295408e-05  -1.4106319722996907e-04  -1.4982495148366140e-04  -5.3426770885020369e-05  -4.8174408048494309e-05  -1.7006223316701270e-04  -7.3346874691120233e-05  -1.9557317381528654e-04  -8.9588724846675547e-06  -2.0250151016521910e-04  -5.7846233117725290e-04  -1.3836837907079622e-04  -3.0857367397567928e-05  -2.4436018145540246e-04  -6.0906446046458018e-04  -5.2571642024678916e-04  -5.5965880419958011e-05  -3.8844933374981112e-04  -1.2455118442676990e-04  -4.7152623421020526e-04  -5.1642852529303594e-04  0.0000000000000000e+00  -3.4986002875435906e-05  -7.1425712742654820e-04  -5.4657278065386485e-04  -5.7186303187824846e-07  -1.1102295795017179e-05  -5.6309403800037420e-05  -1.1193010674397136e-05  -8.9573128442479869e-06  -1.9623597858919030e-05  -1.004562253