<?xml version="1.0"?>
<VTKFile type="UnstructuredGrid"  version="0.1"  >
<UnstructuredGrid>
<Piece  NumberOfPoints="1089" NumberOfCells="2048">
<Points>
<DataArray  type="Float64"  NumberOfComponents="3"  format="ascii">0 0 0  0.03125 0 0  0.0625 0 0  0.09375 0 0  0.125 0 0  0.15625 0 0  0.1875 0 0  0.21875 0 0  0.25 0 0  0.28125 0 0  0.3125 0 0  0.34375 0 0  0.375 0 0  0.40625 0 0  0.4375 0 0  0.46875 0 0  0.5 0 0  0.53125 0 0  0.5625 0 0  0.59375 0 0  0.625 0 0  0.65625 0 0  0.6875 0 0  0.71875 0 0  0.75 0 0  0.78125 0 0  0.8125 0 0  0.84375 0 0  0.875 0 0  0.90625 0 0  0.9375 0 0  0.96875 0 0  1 0 0  0 0.03125 0  0.03125 0.03125 0  0.0625 0.03125 0  0.09375 0.03125 0  0.125 0.03125 0  0.15625 0.03125 0  0.1875 0.03125 0  0.21875 0.03125 0  0.25 0.03125 0  0.28125 0.03125 0  0.3125 0.03125 0  0.34375 0.03125 0  0.375 0.03125 0  0.40625 0.03125 0  0.4375 0.03125 0  0.46875 0.03125 0  0.5 0.03125 0  0.53125 0.03125 0  0.5625 0.03125 0  0.59375 0.03125 0  0.625 0.03125 0  0.65625 0.03125 0  0.6875 0.03125 0  0.71875 0.03125 0  0.75 0.03125 0  0.78125 0.03125 0  0.8125 0.03125 0  0.84375 0.03125 0  0.875 0.03125 0  0.90625 0.03125 0  0.9375 0.03125 0  0.96875 0.03125 0  1 0.03125 0  0 0.0625 0  0.03125 0.0625 0  0.0625 0.0625 0  0.09375 0.0625 0  0.125 0.0625 0  0.15625 0.0625 0  0.1875 0.0625 0  0.21875 0.0625 0  0.25 0.0625 0  0.28125 0.0625 0  0.3125 0.0625 0  0.34375 0.0625 0  0.375 0.0625 0  0.40625 0.0625 0  0.4375 0.0625 0  0.46875 0.0625 0  0.5 0.0625 0  0.53125 0.0625 0  0.5625 0.0625 0  0.59375 0.0625 0  0.625 0.0625 0  0.65625 0.0625 0  0.6875 0.0625 0  0.71875 0.0625 0  0.75 0.0625 0  0.78125 0.0625 0  0.8125 0.0625 0  0.84375 0.0625 0  0.875 0.0625 0  0.90625 0.0625 0  0.9375 0.0625 0  0.96875 0.0625 0  1 0.0625 0  0 0.09375 0  0.03125 0.09375 0  0.0625 0.09375 0  0.09375 0.09375 0  0.125 0.09375 0  0.15625 0.09375 0  0.1875 0.09375 0  0.21875 0.09375 0  0.25 0.09375 0  0.28125 0.09375 0  0.3125 0.09375 0  0.34375 0.09375 0  0.375 0.09375 0  0.40625 0.09375 0  0.4375 0.09375 0  0.46875 0.09375 0  0.5 0.09375 0  0.53125 0.09375 0  0.5625 0.09375 0  0.59375 0.09375 0  0.625 0.09375 0  0.65625 0.09375 0  0.6875 0.09375 0  0.71875 0.09375 0  0.75 0.09375 0  0.78125 0.09375 0  0.8125 0.09375 0  0.84375 0.09375 0  0.875 0.09375 0  0.90625 0.09375 0  0.9375 0.09375 0  0.96875 0.09375 0  1 0.09375 0  0 0.125 0  0.03125 0.125 0  0.0625 0.125 0  0.09375 0.125 0  0.125 0.125 0  0.15625 0.125 0  0.1875 0.125 0  0.21875 0.125 0  0.25 0.125 0  0.28125 0.125 0  0.3125 0.125 0  0.34375 0.125 0  0.375 0.125 0  0.40625 0.125 0  0.4375 0.125 0  0.46875 0.125 0  0.5 0.125 0  0.53125 0.125 0  0.5625 0.125 0  0.59375 0.125 0  0.625 0.125 0  0.65625 0.125 0  0.6875 0.125 0  0.71875 0.125 0  0.75 0.125 0  0.78125 0.125 0  0.8125 0.125 0  0.84375 0.125 0  0.875 0.125 0  0.90625 0.125 0  0.9375 0.125 0  0.96875 0.125 0  1 0.125 0  0 0.15625 0  0.03125 0.15625 0  0.0625 0.15625 0  0.09375 0.15625 0  0.125 0.15625 0  0.15625 0.15625 0  0.1875 0.15625 0  0.21875 0.15625 0  0.25 0.15625 0  0.28125 0.15625 0  0.3125 0.15625 0  0.34375 0.15625 0  0.375 0.15625 0  0.40625 0.15625 0  0.4375 0.15625 0  0.46875 0.15625 0  0.5 0.15625 0  0.53125 0.15625 0  0.5625 0.15625 0  0.59375 0.15625 0  0.625 0.15625 0  0.65625 0.15625 0  0.6875 0.15625 0  0.71875 0.15625 0  0.75 0.15625 0  0.78125 0.15625 0  0.8125 0.15625 0  0.84375 0.15625 0  0.875 0.15625 0  0.90625 0.15625 0  0.9375 0.15625 0  0.96875 0.15625 0  1 0.15625 0  0 0.1875 0  0.03125 0.1875 0  0.0625 0.1875 0  0.09375 0.1875 0  0.125 0.1875 0  0.15625 0.1875 0  0.1875 0.1875 0  0.21875 0.1875 0  0.25 0.1875 0  0.28125 0.1875 0  0.3125 0.1875 0  0.34375 0.1875 0  0.375 0.1875 0  0.40625 0.1875 0  0.4375 0.1875 0  0.46875 0.1875 0  0.5 0.1875 0  0.53125 0.1875 0  0.5625 0.1875 0  0.59375 0.1875 0  0.625 0.1875 0  0.65625 0.1875 0  0.6875 0.1875 0  0.71875 0.1875 0  0.75 0.1875 0  0.78125 0.1875 0  0.8125 0.1875 0  0.84375 0.1875 0  0.875 0.1875 0  0.90625 0.1875 0  0.9375 0.1875 0  0.96875 0.1875 0  1 0.1875 0  0 0.21875 0  0.03125 0.21875 0  0.0625 0.21875 0  0.09375 0.21875 0  0.125 0.21875 0  0.15625 0.21875 0  0.1875 0.21875 0  0.21875 0.21875 0  0.25 0.21875 0  0.28125 0.21875 0  0.3125 0.21875 0  0.34375 0.21875 0  0.375 0.21875 0  0.40625 0.21875 0  0.4375 0.21875 0  0.46875 0.21875 0  0.5 0.21875 0  0.53125 0.21875 0  0.5625 0.21875 0  0.59375 0.21875 0  0.625 0.21875 0  0.65625 0.21875 0  0.6875 0.21875 0  0.71875 0.21875 0  0.75 0.21875 0  0.78125 0.21875 0  0.8125 0.21875 0  0.84375 0.21875 0  0.875 0.21875 0  0.90625 0.21875 0  0.9375 0.21875 0  0.96875 0.21875 0  1 0.21875 0  0 0.25 0  0.03125 0.25 0  0.0625 0.25 0  0.09375 0.25 0  0.125 0.25 0  0.15625 0.25 0  0.1875 0.25 0  0.21875 0.25 0  0.25 0.25 0  0.28125 0.25 0  0.3125 0.25 0  0.34375 0.25 0  0.375 0.25 0  0.40625 0.25 0  0.4375 0.25 0  0.46875 0.25 0  0.5 0.25 0  0.53125 0.25 0  0.5625 0.25 0  0.59375 0.25 0  0.625 0.25 0  0.65625 0.25 0  0.6875 0.25 0  0.71875 0.25 0  0.75 0.25 0  0.78125 0.25 0  0.8125 0.25 0  0.84375 0.25 0  0.875 0.25 0  0.90625 0.25 0  0.9375 0.25 0  0.96875 0.25 0  1 0.25 0  0 0.28125 0  0.03125 0.28125 0  0.0625 0.28125 0  0.09375 0.28125 0  0.125 0.28125 0  0.15625 0.28125 0  0.1875 0.28125 0  0.21875 0.28125 0  0.25 0.28125 0  0.28125 0.28125 0  0.3125 0.28125 0  0.34375 0.28125 0  0.375 0.28125 0  0.40625 0.28125 0  0.4375 0.28125 0  0.46875 0.28125 0  0.5 0.28125 0  0.53125 0.28125 0  0.5625 0.28125 0  0.59375 0.28125 0  0.625 0.28125 0  0.65625 0.28125 0  0.6875 0.28125 0  0.71875 0.28125 0  0.75 0.28125 0  0.78125 0.28125 0  0.8125 0.28125 0  0.84375 0.28125 0  0.875 0.28125 0  0.90625 0.28125 0  0.9375 0.28125 0  0.96875 0.28125 0  1 0.28125 0  0 0.3125 0  0.03125 0.3125 0  0.0625 0.3125 0  0.09375 0.3125 0  0.125 0.3125 0  0.15625 0.3125 0  0.1875 0.3125 0  0.21875 0.3125 0  0.25 0.3125 0  0.28125 0.3125 0  0.3125 0.3125 0  0.34375 0.3125 0  0.375 0.3125 0  0.40625 0.3125 0  0.4375 0.3125 0  0.46875 0.3125 0  0.5 0.3125 0  0.53125 0.3125 0  0.5625 0.3125 0  0.59375 0.3125 0  0.625 0.3125 0  0.65625 0.3125 0  0.6875 0.3125 0  0.71875 0.3125 0  0.75 0.3125 0  0.78125 0.3125 0  0.8125 0.3125 0  0.84375 0.3125 0  0.875 0.3125 0  0.90625 0.3125 0  0.9375 0.3125 0  0.96875 0.3125 0  1 0.3125 0  0 0.34375 0  0.03125 0.34375 0  0.0625 0.34375 0  0.09375 0.34375 0  0.125 0.34375 0  0.15625 0.34375 0  0.1875 0.34375 0  0.21875 0.34375 0  0.25 0.34375 0  0.28125 0.34375 0  0.3125 0.34375 0  0.34375 0.34375 0  0.375 0.34375 0  0.40625 0.34375 0  0.4375 0.34375 0  0.46875 0.34375 0  0.5 0.34375 0  0.53125 0.34375 0  0.5625 0.34375 0  0.59375 0.34375 0  0.625 0.34375 0  0.65625 0.34375 0  0.6875 0.34375 0  0.71875 0.34375 0  0.75 0.34375 0  0.78125 0.34375 0  0.8125 0.34375 0  0.84375 0.34375 0  0.875 0.34375 0  0.90625 0.34375 0  0.9375 0.34375 0  0.96875 0.34375 0  1 0.34375 0  0 0.375 0  0.03125 0.375 0  0.0625 0.375 0  0.09375 0.375 0  0.125 0.375 0  0.15625 0.375 0  0.1875 0.375 0  0.21875 0.375 0  0.25 0.375 0  0.28125 0.375 0  0.3125 0.375 0  0.34375 0.375 0  0.375 0.375 0  0.40625 0.375 0  0.4375 0.375 0  0.46875 0.375 0  0.5 0.375 0  0.53125 0.375 0  0.5625 0.375 0  0.59375 0.375 0  0.625 0.375 0  0.65625 0.375 0  0.6875 0.375 0  0.71875 0.375 0  0.75 0.375 0  0.78125 0.375 0  0.8125 0.375 0  0.84375 0.375 0  0.875 0.375 0  0.90625 0.375 0  0.9375 0.375 0  0.96875 0.375 0  1 0.375 0  0 0.40625 0  0.03125 0.40625 0  0.0625 0.40625 0  0.09375 0.40625 0  0.125 0.40625 0  0.15625 0.40625 0  0.1875 0.40625 0  0.21875 0.40625 0  0.25 0.40625 0  0.28125 0.40625 0  0.3125 0.40625 0  0.34375 0.40625 0  0.375 0.40625 0  0.40625 0.40625 0  0.4375 0.40625 0  0.46875 0.40625 0  0.5 0.40625 0  0.53125 0.40625 0  0.5625 0.40625 0  0.59375 0.40625 0  0.625 0.40625 0  0.65625 0.40625 0  0.6875 0.40625 0  0.71875 0.40625 0  0.75 0.40625 0  0.78125 0.40625 0  0.8125 0.40625 0  0.84375 0.40625 0  0.875 0.40625 0  0.90625 0.40625 0  0.9375 0.40625 0  0.96875 0.40625 0  1 0.40625 0  0 0.4375 0  0.03125 0.4375 0  0.0625 0.4375 0  0.09375 0.4375 0  0.125 0.4375 0  0.15625 0.4375 0  0.1875 0.4375 0  0.21875 0.4375 0  0.25 0.4375 0  0.28125 0.4375 0  0.3125 0.4375 0  0.34375 0.4375 0  0.375 0.4375 0  0.40625 0.4375 0  0.4375 0.4375 0  0.46875 0.4375 0  0.5 0.4375 0  0.53125 0.4375 0  0.5625 0.4375 0  0.59375 0.4375 0  0.625 0.4375 0  0.65625 0.4375 0  0.6875 0.4375 0  0.71875 0.4375 0  0.75 0.4375 0  0.78125 0.4375 0  0.8125 0.4375 0  0.84375 0.4375 0  0.875 0.4375 0  0.90625 0.4375 0  0.9375 0.4375 0  0.96875 0.4375 0  1 0.4375 0  0 0.46875 0  0.03125 0.46875 0  0.0625 0.46875 0  0.09375 0.46875 0  0.125 0.46875 0  0.15625 0.46875 0  0.1875 0.46875 0  0.21875 0.46875 0  0.25 0.46875 0  0.28125 0.46875 0  0.3125 0.46875 0  0.34375 0.46875 0  0.375 0.46875 0  0.40625 0.46875 0  0.4375 0.46875 0  0.46875 0.46875 0  0.5 0.46875 0  0.53125 0.46875 0  0.5625 0.46875 0  0.59375 0.46875 0  0.625 0.46875 0  0.65625 0.46875 0  0.6875 0.46875 0  0.71875 0.46875 0  0.75 0.46875 0  0.78125 0.46875 0  0.8125 0.46875 0  0.84375 0.46875 0  0.875 0.46875 0  0.90625 0.46875 0  0.9375 0.46875 0  0.96875 0.46875 0  1 0.46875 0  0 0.5 0  0.03125 0.5 0  0.0625 0.5 0  0.09375 0.5 0  0.125 0.5 0  0.15625 0.5 0  0.1875 0.5 0  0.21875 0.5 0  0.25 0.5 0  0.28125 0.5 0  0.3125 0.5 0  0.34375 0.5 0  0.375 0.5 0  0.40625 0.5 0  0.4375 0.5 0  0.46875 0.5 0  0.5 0.5 0  0.53125 0.5 0  0.5625 0.5 0  0.59375 0.5 0  0.625 0.5 0  0.65625 0.5 0  0.6875 0.5 0  0.71875 0.5 0  0.75 0.5 0  0.78125 0.5 0  0.8125 0.5 0  0.84375 0.5 0  0.875 0.5 0  0.90625 0.5 0  0.9375 0.5 0  0.96875 0.5 0  1 0.5 0  0 0.53125 0  0.03125 0.53125 0  0.0625 0.53125 0  0.09375 0.53125 0  0.125 0.53125 0  0.15625 0.53125 0  0.1875 0.53125 0  0.21875 0.53125 0  0.25 0.53125 0  0.28125 0.53125 0  0.3125 0.53125 0  0.34375 0.53125 0  0.375 0.53125 0  0.40625 0.53125 0  0.4375 0.53125 0  0.46875 0.53125 0  0.5 0.53125 0  0.53125 0.53125 0  0.5625 0.53125 0  0.59375 0.53125 0  0.625 0.53125 0  0.65625 0.53125 0  0.6875 0.53125 0  0.71875 0.53125 0  0.75 0.53125 0  0.78125 0.531
[...]
<PointData  Scalars="theta"> 
<DataArray  type="Float64"  Name="theta"  format="ascii">-1.7515574895968406e-07  1.6788230210862571e-07  3.1808370550341200e-07  9.3897205415963944e-08  -1.8077911422978230e-07  -7.8182410149131473e-07  -9.3817497130557055e-08  -1.7891994346174653e-07  4.0419489940508101e-18  4.3582864787159507e-07  7.4148915493951863e-07  1.7115493252752261e-07  9.2432741670821340e-08  -2.8116623326990114e-07  -7.7855902635962403e-08  -8.4253010640221733e-07  -1.1109746615375750e-07  -7.2239306056025510e-07  -5.9419672907896400e-08  -3.1540255494297322e-07  -9.0880250219515984e-08  4.3360255038533779e-07  1.9762710037500512e-07  0.0000000000000000e+00  1.0062599643375507e-06  5.5184360374672004e-07  2.7046738209445385e-07  1.3254335513689092e-06  1.0646029781157457e-06  7.8772419246965349e-07  5.9740270629516701e-07  4.9129360091345508e-07  4.3076983686463495e-07  -3.3186457995807208e-07  -1.6788230209782612e-07  1.6014670069492686e-07  3.0342719477499295e-07  8.9998068001826486e-08  -1.7476699213018800e-07  -7.6216905793847637e-07  -6.3884795304208803e-08  -1.6240939094338484e-07  3.7877331509045602e-18  4.0861383186774743e-07  7.1934514575947453e-07  1.4761107709781211e-07  8.6331935225943905e-08  -2.7070864106157920e-07  -6.9199683399274416e-08  -7.8772419246247001e-07  -5.6395045958444416e-08  -6.7392388110536533e-07  0.0000000000000000e+00  -2.9414688071687414e-07  -6.9995556810768004e-08  4.0973293608238297e-07  1.8480991593720154e-07  1.4325342118562217e-06  9.4684183980215452e-07  5.1764307612584602e-07  2.2319210709130334e-07  1.2894706150601412e-06  1.0106757472745697e-06  7.3516567796971527e-07  5.5890521905599019e-07  4.6064516266269826e-07  -8.9998068000465873e-08  -3.1808370549637554e-07  -1.6014670068462487e-07  1.5203450462337959e-07  2.8805715663637845e-07  8.5851179536986178e-08  -1.6826677368675177e-07  -7.4148915492949770e-07  -3.2429056142832807e-08  -1.4435229769155564e-07  3.5529882496889117e-18  3.8203382679283898e-07  6.9542207883616116e-07  1.2180998341593772e-07  8.0768581495416788e-08  -2.5946730340922294e-07  -5.9680662722074446e-08  -7.3516567796301121e-07  0.0000000000000000e+00  -6.2944311505986000e-07  -5.8330498026192689e-07  -2.7441100737320561e-07  -4.7663303283792058e-08  3.8553882771554159e-07  1.7184824159901100e-07  1.3965203280794785e-06  8.8771739587034571e-07  4.8535087483301967e-07  1.7190154927929006e-07  1.2509615567049748e-06  9.5503852777169663e-07  6.8562124052545003e-07  5.2375322636378055e-07  3.8707768328408845e-08  -8.5851179535688272e-08  -3.0342719476828074e-07  -1.5203450461359945e-07  1.4366507740742846e-07  2.7219974708007918e-07  8.1502406828241258e-08  -1.6127939562867521e-07  -7.1934514574975281e-07  0.0000000000000000e+00  -1.2449537871406720e-07  3.3313416807659888e-18  3.5654377505022754e-07  6.6955680892606137e-07  9.3817497131824957e-08  7.5688692294735323e-08  -2.4751169156776551e-07  -4.9249017616820922e-08  -6.8562124051919776e-07  -1.4325342118349375e-06  -5.8888089792482079e-07  -5.6864070377087642e-07  -2.5629915207100331e-07  -2.4194738838603257e-08  3.6146430138539342e-07  1.5827455491019374e-07  1.3586285970600306e-06  8.2997208465690809e-07  4.5387325021584995e-07  1.1705593971347722e-07  1.2093586666097769e-06  8.9864495136960057e-07  6.3961927738458136e-07  9.2789917553175793e-08  3.6576924080130885e-08  -8.1502406827009090e-08  -2.8805715663000628e-07  -1.4366507739818669e-07  1.3518187250679261e-07  2.5612676490478711e-07  7.7015738071279962e-08  -1.5384803982073281e-07  -6.9542207882676269e-07  -6.5939148685816796e-07  -1.0273470199308087e-07  3.1152861870270313e-18  3.3251550320829065e-07  6.4175306340446970e-07  6.3884795305072194e-08  7.0997882808426556e-08  -2.3497404100559162e-07  -3.7931370150788107e-08  -6.3961927737874859e-07  -1.3965203280587292e-06  -5.5184360373852066e-07  -5.5321179796781727e-07  -2.3978286710561476e-07  0.0000000000000000e+00  3.3795133580293695e-07  1.4366913809301379e-07  1.3180541882164897e-06  7.7459470731723155e-07  4.2204077396434329e-07  5.9419672908779273e-08  1.1643782305811563e-06  8.4253010640990045e-07  2.0593972661717135e-18  8.6754007148013564e-08  3.4417112195390224e-08  -7.7015738070115636e-08  -2.7219974707405778e-07  -1.3518187249809660e-07  1.2674059677768578e-07  2.4013322520842878e-07  7.2468075560511815e-08  -1.4605490103714666e-07  -6.6955680891701252e-07  -6.4281439698866081e-07  -7.9125801837303857e-08  2.8967950696985184e-18  3.1020527560998536e-07  6.1218266889495739e-07  3.2429056143271080e-08  6.6568811835096607e-08  -2.2203883173381558e-07  -2.5829273768826723e-08  -5.9740270628971921e-07  -1.3586285970398443e-06  -5.1764307611815475e-07  -5.3669054873429710e-07  -2.2470187429175220e-07  5.8330498028779474e-07  3.1540255495696039e-07  1.2769563428953103e-07  1.2742200166242624e-06  7.2239306057098828e-07  3.8870526129110268e-07  0.0000000000000000e+00  1.1160267306301868e-06  -5.0731987305514818e-08  1.9234715769958240e-18  8.0965608383312339e-08  3.2267975417999487e-08  -7.2468075559416231e-08  -2.5612676489912120e-07  -1.2674059676953277e-07  1.1849622166647283e-07  2.2451274972056024e-07  6.7942890370956980e-08  -1.3801464815645048e-07  -6.4175306339579661e-07  -6.2537293929099919e-07  -5.3880521312810810e-08  2.6679874408747819e-18  2.8973090353719638e-07  5.8117268979373750e-07  0.0000000000000000e+00  6.2251464986021520e-08  -2.0892777552247243e-07  -1.3111397871579269e-08  -5.5890521905089338e-07  -1.3180541881969061e-06  -4.8535087482580824e-07  -5.1884197633456978e-07  -2.1077596737537090e-07  5.6864070379609408e-07  2.9414688072991866e-07  1.1012998480271624e-07  1.2268271516896373e-06  6.7392388111537842e-07  3.5283593053601905e-07  1.3596142280930646e-06  -9.8313211807877744e-09  -4.7441744029378934e-08  1.7995203097685049e-18  7.5509157354801275e-08  3.0168969257471252e-08  -6.7942890369929807e-08  -2.4013322520311672e-07  -1.1849622165885015e-07  1.1058991963311853e-07  2.0953281546893622e-07  6.3523259340335157e-08  -1.2986509253215657e-07  -6.1218266888668400e-07  -6.0669665250196229e-07  -2.7350709074638414e-08  2.4217882419000152e-18  2.7106022855667929e-07  5.4917940945795749e-07  1.9648074278057844e-07  5.7885448086266748e-08  -1.9588152214581859e-07  0.0000000000000000e+00  -5.2375322635900424e-07  -1.2742200166053302e-06  -4.5387325020910624e-07  -4.9954436102007969e-07  -1.9762710036624097e-07  5.5321179799235074e-07  2.7441100738537493e-07  9.0880250223546220e-08  1.1758824230724053e-06  6.2944311506921231e-07  3.1360672548034719e-07  -5.0762645663696867e-08  -8.1128943269953708e-09  -4.4114409383798790e-08  1.6863406102027929e-18  7.0442847753932530e-08  2.8156036021035106e-08  -6.3523259339374794e-08  -2.2451274971559375e-07  -1.1058991962600445e-07  1.0313702089284971e-07  1.9541193662542047e-07  5.9284861968464474e-08  -1.2175581698121447e-07  -5.8117268978588317e-07  -5.8651990604650255e-07  0.0000000000000000e+00  2.1525276045307375e-18  2.5401206574033147e-07  5.1675119835951601e-07  1.9154122051555755e-07  5.3313280638675567e-08  -1.8313958477938650e-07  -1.3596142280806664e-06  -4.9129360090897491e-07  -1.2268271516714091e-06  -4.2204077395807255e-07  -4.7880048371887488e-07  -1.8480991592900581e-07  5.3669054875809777e-07  2.5629915208236938e-07  6.9995556813872075e-08  1.1217006682357518e-06  5.8888089793357032e-07  1.3224867593659977e-08  -4.9385304799658348e-08  -6.2485144395323852e-09  -4.0629967728380936e-08  1.5818295889172899e-18  6.5793432711120109e-08  2.6258538617218445e-08  -5.9284861967568187e-08  -2.0953281546430110e-07  -1.0313702088621508e-07  9.6217011486583709e-08  1.8230071402234143e-07  5.5289524287167709e-08  -1.1383569783481276e-07  -5.4917940945053547e-07  -5.6470510300929084e-07  9.8325998293950530e-18  1.8564286374654245e-18  2.3826965863185890e-07  4.8448326725447914e-07  1.8634414012869821e-07  4.8393584696008312e-08  -1.7092014983736415e-07  -1.3254335513568225e-06  -4.6064516265849756e-07  -1.1758824230549344e-06  -3.8870526128532718e-07  -4.5673854120191487e-07  -1.7184824159139008e-07  5.1884197635757890e-07  2.3978286711624835e-07  4.7663303285905769e-08  1.0648811663988200e-06  1.3097133253638705e-08  1.2443959222569682e-08  -4.7910450264621882e-08  -4.2549106311097900e-09  -3.6880675150819858e-08  1.4831500897562744e-18  6.1553609540706600e-08  2.4496714078823734e-08  -5.5289524286331833e-08  -1.9541193662109769e-07  -9.6217011480394227e-08  8.9866433183122026e-08  1.7026838271950023e-07  5.1579857042341390e-08  -1.0624035515972784e-07  -5.1675119835253222e-07  -5.4125538706360716e-07  9.5854084502654626e-18  1.5319415452316822e-18  2.2340564878921120e-07  4.5296801569417395e-07  1.8077911423159807e-07  4.3013061645153847e-08  -1.5940146374341056e-07  -1.2894706150483822e-06  -4.3076983686070673e-07  -1.1217006682190860e-06  -3.5283593053077650e-07  -4.3360255036610877e-07  -1.5827455490317474e-07  4.9954436104223309e-07  2.2470187430171704e-07  2.4194738839676220e-08  -4.0798108048230371e-09  1.2285437938962332e-08  1.1666910576833587e-08  -4.6317105380370906e-08  -2.1598681670958580e-09  -3.2780186955399410e-08  1.3869597989850226e-18  5.7682233931781953e-08  2.2879865888139966e-08  -5.1579857041561584e-08  -1.8230071401830870e-07  -8.9866433177341079e-08  8.4075311334758280e-08  1.5929604392373225e-07  4.8175449485218053e-08  -9.9080583168189782e-08  -4.8448326724793136e-07  -5.1631567701226265e-07  9.3253279405828774e-18  1.1798944347207917e-18  2.0891658630969793e-07  4.2274509471693407e-07  1.7476699213194340e-07  3.7096239441973226e-08  -1.4870637463837476e-07  -1.2509615566935672e-06  -4.0055772236571820e-07  -1.0648811663829981e-06  -3.1360672547568750e-07  -4.0973293606421252e-07  -1.4366913808664254e-07  4.7880048374010830e-07  2.1077596738471820e-07  -2.6621787443056961e-08  -2.7781371931433395e-09  1.1519033724953201e-08  1.0907987314438716e-08  -4.4594404205678881e-08  0.0000000000000000e+00  -2.8270986015410723e-08  1.2896851417057304e-18  5.4107375364202978e-08  2.1405454514068370e-08  -4.8175449484489717e-08  -1.7026838271573366e-07  -8.4075311329349855e-08  7.8787447437859133e-08  1.4927721929839985e-07  4.5070954423084128e-08  -9.2432741669892938e-08  -4.5296801568805218e-07  -4.9016181940194580e-07  9.0468341202113123e-18  8.0344623069423148e-19  1.9426418661642104e-07  3.9425536984577936e-07  1.6826677368844189e-07  3.0612149169714242e-08  -1.3889135895898434e-07  -1.2093586665987487e-06  -3.6891908019173967e-07  -1.0062599643225999e-06  -2.7046738209043521e-07  -3.8553882769844413e-07  -1.2769563428386814e-07  4.5673854122216986e-07  -6.8031735185835807e-09  -2.5273266626980140e-08  -1.4102317551450607e-09  1.0771962197223203e-08  1.0180184848916298e-08  -4.2742594994432976e-08  -1.4973766653992079e-07  -2.3329470967869725e-08  1.1878174596285152e-18  5.0731987307698621e-08  2.0059171897629646e-08  -4.5070954422402730e-08  -1.5929604392020841e-07  -7.8787447432790872e-08  7.3904592487684898e-08  1.4002575814687150e-07  4.2236245054674293e-08  -8.6331935225076782e-08  -4.2274509471122078e-07  -4.6317864422282975e-07  8.7459660051239034e-18  4.0784356901921698e-19  1.7891994346645559e-07  3.6780268734452610e-07  1.6127939563029514e-07  2.3577338543113987e-08  -1.2994100057792678e-07  -1.1643782305705386e-06  -3.3487559833789209e-07  -9.4684183978808647e-07  -2.2319210708798713e-07  -3.6146430136936359e-07  -1.1012998479783233e-07  -1.8827217563701978e-08  -6.3787701819518405e-09  -2.3881985311808813e-08  0.0000000000000000e+00  1.0016468828397960e-08  9.4941197257306017e-09  -4.0773121892675304e-08  -1.4597326435312630e-07  -1.7968252800276950e-08  1.0782068585407917e-18  4.7441744031421104e-08  1.8816003982156966e-08  -4.2236245054035743e-08  -1.4927721929509767e-07  -7.3904592482930754e-08  6.9294191832975049e-08  1.3129051145507550e-07  3.9618652215349882e-08  -8.0768581494605529e-08  -3.9425536984045105e-07  -4.3582864786012434e-07  8.4206718014574382e-18  0.0000000000000000e+00  1.6240939094765937e-07  3.4352673312274345e-07  1.5384803982227809e-07  1.6054931038597043e-08  -1.2176844296529852e-07  -1.1160267306200099e-06  -2.9764326914913647e-07  -8.8771739585715603e-07  -1.7190154927673591e-07  -3.3795133578794986e-07  1.9126836404166283e-09  -1.8353901659923288e-08  -5.9650724970022569e-09  -2.2471790304851793e-08  3.3998928927857032e-08  9.2253032724405859e-09  8.8571089100456382e-09  -3.8707768327430383e-08  -1.4201257752481067e-07  -1.2235437815214223e-08  9.5832905051293085e-19  4.4114409385697732e-08  1.7642202542242182e-08  -3.9618652214750917e-08  -1.4002575814377398e-07  -6.9294191828517472e-08  6.4800089376852029e-08  1.2277561295653894e-07  3.7147116225988892e-08  -7.5688692293975098e-08  -3.6780268733955534e-07  -4.0861383185699303e-07  8.0709983864949439e-18  6.5939148687552271e-07  1.4435229769535490e-07  3.2138937772520246e-07  1.4605490103861370e-07  8.1497679931624017e-09  -1.1422183923788281e-07  -1.0646029781060379e-06  -2.5669983856850269e-07  -8.2997208464457646e-07  -1.1705593971173798e-07  7.8896257517661821e-20  1.7843515568610544e-09  -1.7855905969583696e-08  -5.5467111405904472e-09  -2.1068565341531419e-08  3.3144196479020768e-08  8.3740015604544685e-09  8.2725161981489901e-09  -3.6576924079206289e-08  -1.3777147999905166e-07  -6.2109254315100082e-09  8.2650252184575405e-19  4.0629967730129887e-08  1.6498010458039525e-08  -3.7147116225427283e-08  -1.3129051145217121e-07  -6.4800089372683541e-08  6.0255324279540913e-08  1.1416472482456699e-07  3.4737925183375978e-08  -7.0997882807713447e-08  -3.4352673311810076e-07  -3.8203382678278406e-07  7.6991067353539286e-18  6.4281439700557934e-07  1.2449537871734384e-07  3.0117579468471490e-07  1.3801464815783673e-07  0.0000000000000000e+00  -1.0709632207205512e-07  -1.0106757472653533e-06  -2.1183100681653834e-07  -7.7459470730572270e-07  5.2208049971582950e-19  4.0049140837289195e-20  1.6665796150009609e-09  -1.7322652929974887e-08  -5.1085959845946907e-09  -1.9698071907329227e-08  3.2244896302298020e-08  7.4429585574005335e-09  7.7394233891974811e-09  -3.4417112194520229e-08  -1.3318965115712424e-07  0.0000000000000000e+00  6.8203728648731762e-19  3.6880675152407416e-08  1.5340919737551165e-08  -3.4737925182850791e-08  -1.2277561295382301e-07  -6.0255324275664772e-08  5.5495968667325669e-08  1.0514725574100419e-07  3.2301574995519468e-08  -6.6568811834427993e-08  -3.2138937772085893e-07  -3.5654377504084353e-07  7.3091101688187317e-18  6.2537293930745863e-07  1.0273470199578478e-07  2.8251041374178235e-07  1.2986509253346097e-07  -3.1609945152560803e-07  -1.0015054737818346e-07  -9.5503852776298744e-07  -1.6315128134104910e-07  -1.5732575861729665e-10  4.8689634268271625e-19  0.0000000000000000e+00  1.5591828342607817e-09  -1.6746558147413189e-08  -4.6371798826955998e-09  -1.8383777630399211e-08  3.1281927019509394e-08  6.4191146187130758e-09  7.2526572164311955e-09  -3.2267975417183814e-08  -1.2823584485552324e-07  4.3775819825697416e-18  5.2530202676679363e-19  3.2780186956810455e-08  1.4129194577617895e-08  -3.2301574995031113e-08  -1.1416472482204154e-07  -5.5495968663755690e-08  5.0374856467582913e-08  9.5444372683450428e-08  2.9750187477877045e-08  -6.2251464985396264e-08  -3.0117579468064454e-07  -3.3251550319953900e-07  6.9067471281206019e-18  6.0669665251793024e-07  7.9125801839386406e-08  2.6488652661062058e-07  1.2175581698243740e-07  -3.0815271711960410e-07  -9.3126472001466996e-08  -8.9864495136140563e-07  -1.6665796147468667e-09  0.0000000000000000e+00  4.5422788627324385e-19  3.7929278406810905e-09  1.4611190092560215e-09  -1.6123692898048462e-08  -4.1216063122206628e-09  -1.7144854285509169e-08  3.0241592434658857e-08  5.2971108986104176e-09  6.8031735189285043e-09  -3.0168969256708638e-08  -1.2291077497410709e-07  4.2675296519247720e-18  3.5770313085822316e-19  2.8270986016627668e-08  1.2825366705764207e-08  -2.9750187477427264e-08  -1.0514725573867821e-07  -5.0374856464342370e-08  4.4774050532045929e-08  8.4832622168923894e-08  2.7004870084628413e-08  -5.7885448085685346e-08  -2.8251041373796424e-07  -3.1020527560182091e-07  6.4989141867958123e-18  5.8651990606193951e-07  5.3880521314228909e-08  2.4770720525127689e-07  1.1383569783595615e-07  -2.9979162159150271e-07  -8.5770740330191618e-08  -3.4898185215224618e-09  -1.5591828340230618e-09  9.6553484050546177e-19  4.2424763938315676e-19  3.6975737044256893e-09  1.3705661049654432e-09  -1.5454146941336157e-08  -3.5546433756573173e-09  -1.5994515135728582e-08  2.9116797903914651e-08  4.0798108053294329e-09  6.3787701822752466e-09  -2.8156036020323377e-08  -1.1724735034443211e-07  4.1517389380791446e-18  1.8157645896541159e-19  2.3329470968873959e-08  1.1399409492023896e-08  -2.7004870084220133e-08  -9.5444372681339105e-08  -4.4774050529165673e-08  3.8614988931180133e-08  7.3163154263012261e-08  2.4002399263580547e-08  -5.3313280638140083e-08  -2.6488652660704065e-07  -2.8973090352957086e-07  6.0930970045564470e-18  5.6470510302415373e-07  2.7350709075358266e-08  2.3033421901615859e-07  1.0624035516079492e-07  -2.9083857301837277e-07  2.6268985377881109e-20  -3.3737585709788932e-09  -1.4611190090332529e-09  9.4126131234776223e-19  3.9690851300943999e-19  3.5972475828393609e-09  1.2850658856291583e-09  -1.4742058058676216e-08  -2.9333235631867663e-09  -1.4938834656507807e-08  2.7907705518426776e-08  2.7781371934881687e-09  5.9650724973046890e-09  -2.6258538616554679e-08  -1.1130821147528176e-07  4.0277504150568896e-18  0.0000000000000000e+00  1.7968252801050407e-08  9.8313211810362925e-09  -2.4002399263217662e-08  -8.4832622167047319e-08  -3.8614988928696083e-08  3.1865434856198804e-08  6.0374890439487962e-08  2.0700659664944923e-08  -4.8393584695522241e-08  -2.4770720524792910e-07  -2.7106022854954510e-07  5.6967458860376829e-18  5.4125538707785277e-07  0.0000000000000000e+00  2.1214093118529405e-07  9.9080583169184953e-08  5.6090119499498726e-20  2.3844909814844109e-20  -3.2482762506649874e-09  -1.3705661047564806e-09  9.1572210625862323e-19  3.7194520139043366e-19  3.4898185220545358e-09  1.2017224249419139e-09  -1.3995302334386086e-08  -2.2592325132849663e-09  -1.3976154724701587e-08  2.6621787446361323e-08  1.4102317553201020e-09  5.5467111408716671e-09  -2.4496714078204503e-08  -1.0518074733950681e-07  3.8938006090453713e-18  1.4973766654636629e-07  1.2235437815740907e-08  8.1128943272004504e-09  -2.0700659664631958e-08  -7.3163154261393819e-08  -3.1865434854148938e-08  2.4542613498415709e-08  4.6500466971574977e-08  1.7082369833363178e-08  -4.3013061644721820e-08  -2.3033421901304563e-07  -2.5401206573364600e-07  5.3166477449420497e-18  5.1631567702585171e-07  7.8182410150188073e-07  1.9256477931613249e-07  9.1817112615341914e-20  5.2347675904139385e-20  2.1193771493303380e-20  -3.1133896435043802e-09  -1.2850658854332315e-09  8.8837476261606605e-19  3.4889388386634127e-19  3.3737585714932721e-09  1.1174394218465034e-09  -1.3224867592989474e-08  -1.5384188565057526e-09  -1.3097133252013057e-08  2.5273266630117123e-08  0.0000000000000000e+00  5.1085959848536983e-09  -2.2879865887561608e-08  -9.8969983753916693e-08  3.7489760387676748e-18  1.4597326435940980e-07  6.2109254317773620e-09  6.2485144396903361e-09  -1.7082369833104915e-08  -6.0374890438152416e-08  -2.4542613496836912e-08  1.6712232659486746e-08  3.1664379299046765e-08  1.3156763821023840e-08  -3.7096239441600631e-08  -2.1214093118242698e-07  -2.3826965862558778e-07  4.9583471203264833e-18  4.9016181941484653e-07  7.6216905794877682e-07  2.1193771493303380e-20  8.9075064439593324e-20  4.8819850501098545e-20  1.8278383168351572e-20  -2.9699323461884028e-09  -1.2017224247586941e-09  8.5883032344895588e-19  3.2712878732149958e-19  3.2482762511602345e-09  1.0291768218644219e-09  -1.2443959221938771e-08  -7.8092872069562560e-10  -1.2285437937437435e-08  2.3881985314773104e-08  1.8827217564656525e-08  4.6371798829307069e-09  -2.1405454513527285e-08  -9.2789917549181596e-08  3.5932975745076664e-18  1.4201257753092366e-07  0.0000000000000000e+00  4.2549106312173467e-09  -1.315676