<?xml version="1.0"?>
<VTKFile type="UnstructuredGrid"  version="0.1"  >
<UnstructuredGrid>
<Piece  NumberOfPoints="1089" NumberOfCells="2048">
<Points>
<DataArray  type="Float64"  NumberOfComponents="3"  format="ascii">0 0 0  0.03125 0 0  0.0625 0 0  0.09375 0 0  0.125 0 0  0.15625 0 0  0.1875 0 0  0.21875 0 0  0.25 0 0  0.28125 0 0  0.3125 0 0  0.34375 0 0  0.375 0 0  0.40625 0 0  0.4375 0 0  0.46875 0 0  0.5 0 0  0.53125 0 0  0.5625 0 0  0.59375 0 0  0.625 0 0  0.65625 0 0  0.6875 0 0  0.71875 0 0  0.75 0 0  0.78125 0 0  0.8125 0 0  0.84375 0 0  0.875 0 0  0.90625 0 0  0.9375 0 0  0.96875 0 0  1 0 0  0 0.03125 0  0.03125 0.03125 0  0.0625 0.03125 0  0.09375 0.03125 0  0.125 0.03125 0  0.15625 0.03125 0  0.1875 0.03125 0  0.21875 0.03125 0  0.25 0.03125 0  0.28125 0.03125 0  0.3125 0.03125 0  0.34375 0.03125 0  0.375 0.03125 0  0.40625 0.03125 0  0.4375 0.03125 0  0.46875 0.03125 0  0.5 0.03125 0  0.53125 0.03125 0  0.5625 0.03125 0  0.59375 0.03125 0  0.625 0.03125 0  0.65625 0.03125 0  0.6875 0.03125 0  0.71875 0.03125 0  0.75 0.03125 0  0.78125 0.03125 0  0.8125 0.03125 0  0.84375 0.03125 0  0.875 0.03125 0  0.90625 0.03125 0  0.9375 0.03125 0  0.96875 0.03125 0  1 0.03125 0  0 0.0625 0  0.03125 0.0625 0  0.0625 0.0625 0  0.09375 0.0625 0  0.125 0.0625 0  0.15625 0.0625 0  0.1875 0.0625 0  0.21875 0.0625 0  0.25 0.0625 0  0.28125 0.0625 0  0.3125 0.0625 0  0.34375 0.0625 0  0.375 0.0625 0  0.40625 0.0625 0  0.4375 0.0625 0  0.46875 0.0625 0  0.5 0.0625 0  0.53125 0.0625 0  0.5625 0.0625 0  0.59375 0.0625 0  0.625 0.0625 0  0.65625 0.0625 0  0.6875 0.0625 0  0.71875 0.0625 0  0.75 0.0625 0  0.78125 0.0625 0  0.8125 0.0625 0  0.84375 0.0625 0  0.875 0.0625 0  0.90625 0.0625 0  0.9375 0.0625 0  0.96875 0.0625 0  1 0.0625 0  0 0.09375 0  0.03125 0.09375 0  0.0625 0.09375 0  0.09375 0.09375 0  0.125 0.09375 0  0.15625 0.09375 0  0.1875 0.09375 0  0.21875 0.09375 0  0.25 0.09375 0  0.28125 0.09375 0  0.3125 0.09375 0  0.34375 0.09375 0  0.375 0.09375 0  0.40625 0.09375 0  0.4375 0.09375 0  0.46875 0.09375 0  0.5 0.09375 0  0.53125 0.09375 0  0.5625 0.09375 0  0.59375 0.09375 0  0.625 0.09375 0  0.65625 0.09375 0  0.6875 0.09375 0  0.71875 0.09375 0  0.75 0.09375 0  0.78125 0.09375 0  0.8125 0.09375 0  0.84375 0.09375 0  0.875 0.09375 0  0.90625 0.09375 0  0.9375 0.09375 0  0.96875 0.09375 0  1 0.09375 0  0 0.125 0  0.03125 0.125 0  0.0625 0.125 0  0.09375 0.125 0  0.125 0.125 0  0.15625 0.125 0  0.1875 0.125 0  0.21875 0.125 0  0.25 0.125 0  0.28125 0.125 0  0.3125 0.125 0  0.34375 0.125 0  0.375 0.125 0  0.40625 0.125 0  0.4375 0.125 0  0.46875 0.125 0  0.5 0.125 0  0.53125 0.125 0  0.5625 0.125 0  0.59375 0.125 0  0.625 0.125 0  0.65625 0.125 0  0.6875 0.125 0  0.71875 0.125 0  0.75 0.125 0  0.78125 0.125 0  0.8125 0.125 0  0.84375 0.125 0  0.875 0.125 0  0.90625 0.125 0  0.9375 0.125 0  0.96875 0.125 0  1 0.125 0  0 0.15625 0  0.03125 0.15625 0  0.0625 0.15625 0  0.09375 0.15625 0  0.125 0.15625 0  0.15625 0.15625 0  0.1875 0.15625 0  0.21875 0.15625 0  0.25 0.15625 0  0.28125 0.15625 0  0.3125 0.15625 0  0.34375 0.15625 0  0.375 0.15625 0  0.40625 0.15625 0  0.4375 0.15625 0  0.46875 0.15625 0  0.5 0.15625 0  0.53125 0.15625 0  0.5625 0.15625 0  0.59375 0.15625 0  0.625 0.15625 0  0.65625 0.15625 0  0.6875 0.15625 0  0.71875 0.15625 0  0.75 0.15625 0  0.78125 0.15625 0  0.8125 0.15625 0  0.84375 0.15625 0  0.875 0.15625 0  0.90625 0.15625 0  0.9375 0.15625 0  0.96875 0.15625 0  1 0.15625 0  0 0.1875 0  0.03125 0.1875 0  0.0625 0.1875 0  0.09375 0.1875 0  0.125 0.1875 0  0.15625 0.1875 0  0.1875 0.1875 0  0.21875 0.1875 0  0.25 0.1875 0  0.28125 0.1875 0  0.3125 0.1875 0  0.34375 0.1875 0  0.375 0.1875 0  0.40625 0.1875 0  0.4375 0.1875 0  0.46875 0.1875 0  0.5 0.1875 0  0.53125 0.1875 0  0.5625 0.1875 0  0.59375 0.1875 0  0.625 0.1875 0  0.65625 0.1875 0  0.6875 0.1875 0  0.71875 0.1875 0  0.75 0.1875 0  0.78125 0.1875 0  0.8125 0.1875 0  0.84375 0.1875 0  0.875 0.1875 0  0.90625 0.1875 0  0.9375 0.1875 0  0.96875 0.1875 0  1 0.1875 0  0 0.21875 0  0.03125 0.21875 0  0.0625 0.21875 0  0.09375 0.21875 0  0.125 0.21875 0  0.15625 0.21875 0  0.1875 0.21875 0  0.21875 0.21875 0  0.25 0.21875 0  0.28125 0.21875 0  0.3125 0.21875 0  0.34375 0.21875 0  0.375 0.21875 0  0.40625 0.21875 0  0.4375 0.21875 0  0.46875 0.21875 0  0.5 0.21875 0  0.53125 0.21875 0  0.5625 0.21875 0  0.59375 0.21875 0  0.625 0.21875 0  0.65625 0.21875 0  0.6875 0.21875 0  0.71875 0.21875 0  0.75 0.21875 0  0.78125 0.21875 0  0.8125 0.21875 0  0.84375 0.21875 0  0.875 0.21875 0  0.90625 0.21875 0  0.9375 0.21875 0  0.96875 0.21875 0  1 0.21875 0  0 0.25 0  0.03125 0.25 0  0.0625 0.25 0  0.09375 0.25 0  0.125 0.25 0  0.15625 0.25 0  0.1875 0.25 0  0.21875 0.25 0  0.25 0.25 0  0.28125 0.25 0  0.3125 0.25 0  0.34375 0.25 0  0.375 0.25 0  0.40625 0.25 0  0.4375 0.25 0  0.46875 0.25 0  0.5 0.25 0  0.53125 0.25 0  0.5625 0.25 0  0.59375 0.25 0  0.625 0.25 0  0.65625 0.25 0  0.6875 0.25 0  0.71875 0.25 0  0.75 0.25 0  0.78125 0.25 0  0.8125 0.25 0  0.84375 0.25 0  0.875 0.25 0  0.90625 0.25 0  0.9375 0.25 0  0.96875 0.25 0  1 0.25 0  0 0.28125 0  0.03125 0.28125 0  0.0625 0.28125 0  0.09375 0.28125 0  0.125 0.28125 0  0.15625 0.28125 0  0.1875 0.28125 0  0.21875 0.28125 0  0.25 0.28125 0  0.28125 0.28125 0  0.3125 0.28125 0  0.34375 0.28125 0  0.375 0.28125 0  0.40625 0.28125 0  0.4375 0.28125 0  0.46875 0.28125 0  0.5 0.28125 0  0.53125 0.28125 0  0.5625 0.28125 0  0.59375 0.28125 0  0.625 0.28125 0  0.65625 0.28125 0  0.6875 0.28125 0  0.71875 0.28125 0  0.75 0.28125 0  0.78125 0.28125 0  0.8125 0.28125 0  0.84375 0.28125 0  0.875 0.28125 0  0.90625 0.28125 0  0.9375 0.28125 0  0.96875 0.28125 0  1 0.28125 0  0 0.3125 0  0.03125 0.3125 0  0.0625 0.3125 0  0.09375 0.3125 0  0.125 0.3125 0  0.15625 0.3125 0  0.1875 0.3125 0  0.21875 0.3125 0  0.25 0.3125 0  0.28125 0.3125 0  0.3125 0.3125 0  0.34375 0.3125 0  0.375 0.3125 0  0.40625 0.3125 0  0.4375 0.3125 0  0.46875 0.3125 0  0.5 0.3125 0  0.53125 0.3125 0  0.5625 0.3125 0  0.59375 0.3125 0  0.625 0.3125 0  0.65625 0.3125 0  0.6875 0.3125 0  0.71875 0.3125 0  0.75 0.3125 0  0.78125 0.3125 0  0.8125 0.3125 0  0.84375 0.3125 0  0.875 0.3125 0  0.90625 0.3125 0  0.9375 0.3125 0  0.96875 0.3125 0  1 0.3125 0  0 0.34375 0  0.03125 0.34375 0  0.0625 0.34375 0  0.09375 0.34375 0  0.125 0.34375 0  0.15625 0.34375 0  0.1875 0.34375 0  0.21875 0.34375 0  0.25 0.34375 0  0.28125 0.34375 0  0.3125 0.34375 0  0.34375 0.34375 0  0.375 0.34375 0  0.40625 0.34375 0  0.4375 0.34375 0  0.46875 0.34375 0  0.5 0.34375 0  0.53125 0.34375 0  0.5625 0.34375 0  0.59375 0.34375 0  0.625 0.34375 0  0.65625 0.34375 0  0.6875 0.34375 0  0.71875 0.34375 0  0.75 0.34375 0  0.78125 0.34375 0  0.8125 0.34375 0  0.84375 0.34375 0  0.875 0.34375 0  0.90625 0.34375 0  0.9375 0.34375 0  0.96875 0.34375 0  1 0.34375 0  0 0.375 0  0.03125 0.375 0  0.0625 0.375 0  0.09375 0.375 0  0.125 0.375 0  0.15625 0.375 0  0.1875 0.375 0  0.21875 0.375 0  0.25 0.375 0  0.28125 0.375 0  0.3125 0.375 0  0.34375 0.375 0  0.375 0.375 0  0.40625 0.375 0  0.4375 0.375 0  0.46875 0.375 0  0.5 0.375 0  0.53125 0.375 0  0.5625 0.375 0  0.59375 0.375 0  0.625 0.375 0  0.65625 0.375 0  0.6875 0.375 0  0.71875 0.375 0  0.75 0.375 0  0.78125 0.375 0  0.8125 0.375 0  0.84375 0.375 0  0.875 0.375 0  0.90625 0.375 0  0.9375 0.375 0  0.96875 0.375 0  1 0.375 0  0 0.40625 0  0.03125 0.40625 0  0.0625 0.40625 0  0.09375 0.40625 0  0.125 0.40625 0  0.15625 0.40625 0  0.1875 0.40625 0  0.21875 0.40625 0  0.25 0.40625 0  0.28125 0.40625 0  0.3125 0.40625 0  0.34375 0.40625 0  0.375 0.40625 0  0.40625 0.40625 0  0.4375 0.40625 0  0.46875 0.40625 0  0.5 0.40625 0  0.53125 0.40625 0  0.5625 0.40625 0  0.59375 0.40625 0  0.625 0.40625 0  0.65625 0.40625 0  0.6875 0.40625 0  0.71875 0.40625 0  0.75 0.40625 0  0.78125 0.40625 0  0.8125 0.40625 0  0.84375 0.40625 0  0.875 0.40625 0  0.90625 0.40625 0  0.9375 0.40625 0  0.96875 0.40625 0  1 0.40625 0  0 0.4375 0  0.03125 0.4375 0  0.0625 0.4375 0  0.09375 0.4375 0  0.125 0.4375 0  0.15625 0.4375 0  0.1875 0.4375 0  0.21875 0.4375 0  0.25 0.4375 0  0.28125 0.4375 0  0.3125 0.4375 0  0.34375 0.4375 0  0.375 0.4375 0  0.40625 0.4375 0  0.4375 0.4375 0  0.46875 0.4375 0  0.5 0.4375 0  0.53125 0.4375 0  0.5625 0.4375 0  0.59375 0.4375 0  0.625 0.4375 0  0.65625 0.4375 0  0.6875 0.4375 0  0.71875 0.4375 0  0.75 0.4375 0  0.78125 0.4375 0  0.8125 0.4375 0  0.84375 0.4375 0  0.875 0.4375 0  0.90625 0.4375 0  0.9375 0.4375 0  0.96875 0.4375 0  1 0.4375 0  0 0.46875 0  0.03125 0.46875 0  0.0625 0.46875 0  0.09375 0.46875 0  0.125 0.46875 0  0.15625 0.46875 0  0.1875 0.46875 0  0.21875 0.46875 0  0.25 0.46875 0  0.28125 0.46875 0  0.3125 0.46875 0  0.34375 0.46875 0  0.375 0.46875 0  0.40625 0.46875 0  0.4375 0.46875 0  0.46875 0.46875 0  0.5 0.46875 0  0.53125 0.46875 0  0.5625 0.46875 0  0.59375 0.46875 0  0.625 0.46875 0  0.65625 0.46875 0  0.6875 0.46875 0  0.71875 0.46875 0  0.75 0.46875 0  0.78125 0.46875 0  0.8125 0.46875 0  0.84375 0.46875 0  0.875 0.46875 0  0.90625 0.46875 0  0.9375 0.46875 0  0.96875 0.46875 0  1 0.46875 0  0 0.5 0  0.03125 0.5 0  0.0625 0.5 0  0.09375 0.5 0  0.125 0.5 0  0.15625 0.5 0  0.1875 0.5 0  0.21875 0.5 0  0.25 0.5 0  0.28125 0.5 0  0.3125 0.5 0  0.34375 0.5 0  0.375 0.5 0  0.40625 0.5 0  0.4375 0.5 0  0.46875 0.5 0  0.5 0.5 0  0.53125 0.5 0  0.5625 0.5 0  0.59375 0.5 0  0.625 0.5 0  0.65625 0.5 0  0.6875 0.5 0  0.71875 0.5 0  0.75 0.5 0  0.78125 0.5 0  0.8125 0.5 0  0.84375 0.5 0  0.875 0.5 0  0.90625 0.5 0  0.9375 0.5 0  0.96875 0.5 0  1 0.5 0  0 0.53125 0  0.03125 0.53125 0  0.0625 0.53125 0  0.09375 0.53125 0  0.125 0.53125 0  0.15625 0.53125 0  0.1875 0.53125 0  0.21875 0.53125 0  0.25 0.53125 0  0.28125 0.53125 0  0.3125 0.53125 0  0.34375 0.53125 0  0.375 0.53125 0  0.40625 0.53125 0  0.4375 0.53125 0  0.46875 0.53125 0  0.5 0.53125 0  0.53125 0.53125 0  0.5625 0.53125 0  0.59375 0.53125 0  0.625 0.53125 0  0.65625 0.53125 0  0.6875 0.53125 0  0.71875 0.53125 0  0.75 0.53125 0  0.78125 0.531
[...]
<PointData  Scalars="theta"> 
<DataArray  type="Float64"  Name="theta"  format="ascii">0.0000000000000000e+00  -2.4133888860996190e-02  2.6552069807861081e-02  1.5593572480510550e-02  0.0000000000000000e+00  1.9530390238100857e-02  8.2425573476309869e-02  0.0000000000000000e+00  -4.1485769697655044e-02  4.0017047542627159e-02  4.3925180914199329e-02  0.0000000000000000e+00  -1.4609016033752698e-01  -8.0508746820582594e-02  0.0000000000000000e+00  5.4151820994517930e-02  6.2107774718427662e-02  -5.5648676645791376e-03  0.0000000000000000e+00  -1.6249495053761034e-01  -6.4760133410183440e-02  0.0000000000000000e+00  4.5310701551669726e-02  1.5700802639036485e-01  6.5683125901877359e-02  0.0000000000000000e+00  1.4908939523210268e-02  -1.6455929293759459e-02  0.0000000000000000e+00  -3.4353744136616696e-02  -1.4038565033128297e-01  -6.0757693199681870e-02  0.0000000000000000e+00  -8.8623108140454925e-03  3.2850933631595129e-02  -1.2250790396859447e-02  2.1911005911915523e-02  7.9155741993039482e-03  -9.1509270244182372e-02  1.6843814528822169e-02  7.1087216135511902e-02  -6.1634308002197991e-02  -2.1058913130230450e-02  3.3022426184805984e-02  2.2297201566783664e-02  -1.3241565610387611e-02  -1.2599418317872166e-01  -6.9434065723289917e-02  8.0508746820781713e-02  2.7488425609030021e-02  5.1251892183128062e-02  -2.8248256108943434e-03  -1.7597287317335936e-01  -1.4014235124632055e-01  -5.5851811598465036e-02  6.4760133410402446e-02  2.3000516437335042e-02  1.2956443016879066e-01  3.3341920677147516e-02  8.2265200653468151e-02  1.2858084712535651e-02  -1.4192272532412491e-02  -9.2037749071469152e-02  -1.7438570351801075e-02  -1.1584749650839499e-01  -3.0841683604043539e-02  0.0000000000000000e+00  -6.8257116211811932e-03  2.8332000868562333e-02  0.0000000000000000e+00  1.6875757443273517e-02  0.0000000000000000e+00  -7.8921371097537066e-02  1.3899666669713436e-02  5.8661807696275055e-02  -5.3155970768880727e-02  0.0000000000000000e+00  2.5433722975727636e-02  0.0000000000000000e+00  -1.1420072640304146e-02  -1.0397152886659741e-01  -5.7297613163886568e-02  6.9434065723461627e-02  0.0000000000000000e+00  3.9473975063870625e-02  0.0000000000000000e+00  -1.5176626793936693e-01  -1.1564672392352490e-01  -4.6089415363123470e-02  5.5851811598653905e-02  0.0000000000000000e+00  9.9789936874391139e-02  0.0000000000000000e+00  7.0948903994767276e-02  1.0610606713186194e-02  -1.1711590456467563e-02  -7.9377153047652027e-02  0.0000000000000000e+00  -8.9225216740185562e-02  1.1827889678316342e-02  -3.2850933631555328e-02  -4.6479516408106363e-03  2.3379820971383344e-02  -6.8189053857740212e-02  1.1491505772816660e-02  8.1015266248259561e-03  -6.5126622564943976e-02  1.0705460269757681e-02  4.5181058407178711e-02  -4.3864783355824472e-02  -8.5623652568687661e-02  1.7319031479460501e-02  1.0167441480800263e-01  -9.4239462665967541e-03  -8.0078400289456009e-02  -4.4130361961448289e-02  5.7297613164028274e-02  1.4609016033764086e-01  2.6879706812999733e-02  -8.2265200653433568e-02  -1.2523888412888667e-01  -8.9070582605306134e-02  -3.5497858815663960e-02  4.6089415363279325e-02  1.6249495053778931e-01  6.7951713546235623e-02  1.4247878931472513e-01  5.8547671278456212e-02  8.1722411986719125e-03  -9.0202138876163129e-03  -6.5502737913983811e-02  -1.6277705564306363e-01  -1.7369751294787222e-02  6.0040467626587737e-03  -2.8332000868528003e-02  -2.3593827606596370e-03  1.8007032144775309e-02  -5.8809054098415636e-02  5.8332923209320755e-03  6.9870908980952610e-03  -5.0160229517711603e-02  7.2898569977737446e-03  3.0765931262836881e-02  -3.3784457326629429e-02  -7.3845371524308326e-02  8.7914478165340808e-03  8.7688211268381638e-02  -7.2582807011632288e-03  -5.4529190899872571e-02  -3.0050462086879882e-02  4.4130361961557431e-02  1.2599418317881986e-01  1.3644616331489228e-02  -7.0948903994737439e-02  -9.6458420919688426e-02  -6.0652395463588277e-02  -2.4172180174669843e-02  3.5497858815784003e-02  1.4014235124647489e-01  3.4493496036096576e-02  1.2287958777324079e-01  4.5093151055489882e-02  5.5648676645812072e-03  -6.1422925939777539e-03  -5.0449911854825870e-02  2.0812799851050875e-03  -1.1827889678279130e-02  0.0000000000000000e+00  -2.3379820971355016e-02  0.0000000000000000e+00  1.2261844515041885e-02  -4.8529758370966937e-02  0.0000000000000000e+00  5.7658100134224156e-03  -3.4156485657379755e-02  3.7004608174498266e-03  1.5617332848264475e-02  -2.3005443619669112e-02  -6.0937862236174159e-02  0.0000000000000000e+00  7.2361097624787457e-02  -4.9425084982710928e-03  -2.7679985271843170e-02  -1.5254147993948329e-02  3.0050462086954197e-02  1.0397152886667843e-01  0.0000000000000000e+00  -5.8547671278431593e-02  -6.5683125901835906e-02  -3.0788232604017130e-02  -1.2270227747405736e-02  2.4172180174751590e-02  1.1564672392365227e-01  0.0000000000000000e+00  1.0140133683122876e-01  3.0706070966621979e-02  2.8248256108953946e-03  -3.1179367551747942e-03  2.6366172630509256e-03  1.4172425175034702e-03  -6.0040467626398843e-03  3.5093535430429521e-02  -1.8007032144753493e-02  1.2452412904889756e-02  6.2243299410991906e-03  -3.7377399939623003e-02  5.5389075917723241e-02  4.4408007392120613e-03  -1.7338438446120489e-02  0.0000000000000000e+00  0.0000000000000000e+00  -1.1677971560846091e-02  -4.6934065297752861e-02  8.5623652568862119e-02  5.5732189419056777e-02  -2.5089050503117449e-03  0.0000000000000000e+00  0.0000000000000000e+00  1.5254147993986052e-02  8.0078400289518431e-02  1.3241565610393580e-02  -4.5093151055470918e-02  -3.3341920677126477e-02  0.0000000000000000e+00  0.0000000000000000e+00  1.2270227747447231e-02  8.9070582605404250e-02  1.7597287317347043e-01  7.8098850033028619e-02  1.5586946699299985e-02  0.0000000000000000e+00  0.0000000000000000e+00  1.3383937264491415e-03  7.1941745996487302e-04  0.0000000000000000e+00  3.0266113208410925e-02  -1.2261844515027029e-02  1.0739474780032378e-02  0.0000000000000000e+00  -2.5452049107891013e-02  4.7769824888645049e-02  3.0239524064103246e-03  0.0000000000000000e+00  5.5210209570990883e-02  5.1456237868414335e-02  0.0000000000000000e+00  -3.1959637019187970e-02  7.3845371524458803e-02  3.7950698129764669e-02  0.0000000000000000e+00  -1.4507914166884397e-01  -2.8127056529198349e-02  0.0000000000000000e+00  5.4529190899915078e-02  1.1420072640309295e-02  -3.0706070966609066e-02  0.0000000000000000e+00  -1.2139273562362060e-01  1.1230341056989038e-13  0.0000000000000000e+00  6.0652395463655077e-02  1.5176626793946274e-01  5.3181220992401357e-02  0.0000000000000000e+00  8.7698052859022969e-03  -2.3766716063248806e-02  0.0000000000000000e+00  0.0000000000000000e+00  -1.8428405746991994e-02  2.4975867803867364e-02  -6.2243299410916489e-03  8.8623108141456346e-03  6.5187236784318477e-03  -1.2919911937411467e-02  3.9420087515602505e-02  1.5350119209707200e-03  -8.1055237473350930e-02  4.7615563169699449e-02  4.4377983053082451e-02  -1.0167441480792466e-01  -1.6223279080171425e-02  6.0937862236298337e-02  1.9264448049796885e-02  -7.2013917927838067e-02  -1.2512223895575106e-01  -2.4257934308719826e-02  1.2162084105060163e-01  2.7679985271864743e-02  9.4239462666010042e-03  -1.5586946699293430e-02  -1.8205068814242098e-01  -1.0469410488284425e-01  9.6855095854825160e-14  1.2139273562382405e-01  3.0788232604051041e-02  1.2523888412896572e-01  2.6995731818418495e-02  0.0000000000000000e+00  6.7544642826800642e-03  -2.0497396746715944e-02  1.8836706458657450e-02  -5.0736240621015649e-03  -1.5893417626579771e-02  1.9236300181185176e-02  0.0000000000000000e+00  6.8257116212583216e-03  5.6220163174181626e-03  0.0000000000000000e+00  3.0361172735759848e-02  0.0000000000000000e+00  -6.9905381815018958e-02  3.9292789362944044e-02  3.6621109242003229e-02  -8.7688211268314387e-02  0.0000000000000000e+00  4.6934065297848507e-02  0.0000000000000000e+00  -6.2107774718395868e-02  -1.0325199268118435e-01  -2.0017864742576733e-02  1.0489083241661318e-01  0.0000000000000000e+00  7.2582807011665022e-03  0.0000000000000000e+00  -1.5700802639023789e-01  -8.6394513408199536e-02  7.9925692920779993e-14  1.0469410488301972e-01  0.0000000000000000e+00  9.6458420919749294e-02  -1.0113360948228538e-03  4.2038280066659318e-14  4.5994359398451728e-03  -1.6914635452005465e-02  1.6245553010227273e-02  -4.3757027713808832e-03  -1.3115390630429519e-02  1.3098911579096748e-02  -4.8781462927005512e-02  4.6479516408631568e-03  4.6393382383833857e-03  -5.5389075917584525e-02  2.0674366346829301e-02  -9.7822640319281794e-03  -5.7686547425772186e-02  3.0263128275552172e-02  2.8205412355604649e-02  -7.2361097624731974e-02  -4.6399736434023744e-02  3.1959637019253098e-02  6.1634308002236529e-02  -5.1251892183101826e-02  -7.9524216780697710e-02  -1.5417668695177165e-02  8.6556854731743779e-02  1.2189119216210453e-01  4.9425084982733219e-03  -1.4247878931465299e-01  -1.2956443016868591e-01  -6.6540662649976753e-02  6.1558406430037326e-14  8.6394513408344337e-02  1.8205068814256820e-01  4.5264363185532593e-03  -5.1337215439309597e-04  3.6255547581027032e-14  2.3347553296265405e-03  -1.3027575560746343e-02  1.3405975904147455e-02  -3.6108691332276599e-03  -1.0101414418976860e-02  6.6492400419501038e-03  -4.2071146759993995e-02  2.3593827606862971e-03  3.5731972837306095e-03  -4.7769824888525422e-02  1.0494675357199595e-02  -8.4366281992831662e-03  -4.4429917367135564e-02  2.0607603211351889e-02  1.9206406586407578e-02  -5.5732189419014040e-02  -4.0017047542462540e-02  1.6223279080204482e-02  5.3155970768913978e-02  -3.9473975063850419e-02  -5.4151820994462245e-02  -1.0498623804564216e-02  6.6665697201569965e-02  1.0512399437212457e-01  2.5089050503128763e-03  -1.2287958777317858e-01  -9.9789936874310453e-02  -4.5310701551593786e-02  4.1918046359343072e-14  6.6540662650088275e-02  -4.5264363185242591e-03  3.0822657447991809e-03  0.0000000000000000e+00  2.9918402713464796e-14  0.0000000000000000e+00  -8.8710957280197893e-03  1.0325221879737223e-02  -2.7810750404031115e-03  -6.8785334524676025e-03  0.0000000000000000e+00  -3.4717487263700136e-02  0.0000000000000000e+00  2.4331599545340536e-03  -3.9420087515503785e-02  0.0000000000000000e+00  -6.9619811822126936e-03  -3.0254443608023741e-02  1.0460785204490192e-02  9.7495129244258745e-03  -3.7950698129735574e-02  -3.3022426184670141e-02  0.0000000000000000e+00  4.3864783355851915e-02  -2.6879706812985977e-02  -2.7488425609001756e-02  -5.3292878087732396e-03  4.5395843523814275e-02  8.6749262066562222e-02  0.0000000000000000e+00  -1.0140133683117743e-01  -6.7951713546180695e-02  -2.3000516437296496e-02  2.1278344437231818e-14  4.2273558670733434e-04  -3.0822657447794333e-03  1.5646128066819972e-03  -1.2322433596092155e-02  2.3043018166867389e-14  2.7094891710280648e-03  -4.5031256661699787e-03  7.0309345957035342e-03  -1.8937662495360802e-03  -3.4916656842716651e-03  2.4880520779739984e-02  -2.6739251335947518e-02  3.4484160217670090e-02  1.2351151849879839e-03  -3.0361172735683815e-02  6.8189053857852705e-02  -5.3620863518531554e-03  -1.5357692635044469e-02  0.0000000000000000e+00  0.0000000000000000e+00  -1.9264448049782112e-02  -2.5433722975623012e-02  1.1114529019865620e-01  3.3784457326650558e-02  -1.3644616331482244e-02  0.0000000000000000e+00  0.0000000000000000e+00  2.3043736013787300e-02  6.6813888458774492e-02  -1.4908939523204724e-02  -7.8098850032989081e-02  -3.4493496036068688e-02  0.0000000000000000e+00  0.0000000000000000e+00  2.1458808797345170e-04  -1.5646128066719731e-03  0.0000000000000000e+00  -1.0627375260090366e-02  1.5691086884708787e-14  2.3367752773119561e-03  0.0000000000000000e+00  3.5690272099163168e-03  -9.6130936532188454e-04  0.0000000000000000e+00  2.1457987899129553e-02  -1.8208027824571069e-02  2.9740562877001910e-02  0.0000000000000000e+00  -2.0674366346777526e-02  5.8809054098512649e-02  -3.6512995919612701e-03  0.0000000000000000e+00  8.1055237473496286e-02  9.7822640319347072e-03  0.0000000000000000e+00  -1.7319031479389256e-02  9.5856285052926093e-02  2.3005443619683499e-02  0.0000000000000000e+00  -1.2162084105042344e-01  2.8127056529408632e-02  0.0000000000000000e+00  4.5496753998106834e-02  -1.2858084712530868e-02  -5.3181220992374434e-02  0.0000000000000000e+00  -3.2078695285930980e-03  3.8021210072833010e-03  0.0000000000000000e+00  0.0000000000000000e+00  7.8359573727910196e-03  -8.7698052858781132e-03  7.9650742418950095e-15  1.9283278963375412e-03  -1.8836706458567540e-02  0.0000000000000000e+00  0.0000000000000000e+00  6.1280545004067002e-14  1.7707323877871120e-02  -9.2427181422678265e-03  2.4542178961459195e-02  -8.1015266248192878e-03  -1.0494675357173314e-02  4.8529758371046998e-02  -1.8534644886654848e-03  -5.5210209570823988e-02  6.9905381815144302e-02  8.4366281992887971e-03  -1.1768076174808859e-01  -8.7914478164979170e-03  7.9101465297711004e-02  1.1677971560853396e-02  -1.2189119216202841e-01  -1.0489083241645950e-01  2.4257934308901181e-02  1.4507914166899313e-01  2.3094959961843336e-02  -1.0610606713182247e-02  -2.6995731818404832e-02  0.0000000000000000e+00  -2.4706865714807626e-03  3.2791060640397079e-03  -1.8214659463101220e-03  -3.3627716972420888e-03  6.7580530155286365e-03  -6.7544642826614376e-03  0.0000000000000000e+00  1.4851894057494371e-03  -1.6245553010149728e-02  2.3766716063316519e-02  -2.4880520779701387e-02  5.2850870960068212e-14  1.3638100593543874e-02  0.0000000000000000e+00  1.8902275000426395e-02  -6.9870908980895095e-03  0.0000000000000000e+00  3.7377399939684669e-02  0.0000000000000000e+00  -4.7615563169555515e-02  5.7686547425875631e-02  6.9619811822173401e-03  -1.0149274542545257e-01  0.0000000000000000e+00  6.0923590050502963e-02  0.0000000000000000e+00  -1.0512399437205891e-01  -8.6556854731616950e-02  2.0017864742726387e-02  1.2512223895587971e-01  0.0000000000000000e+00  -8.1722411986688732e-03  -4.4029672645923512e-04  6.3219507881628390e-04  -1.6824079804671804e-03  2.7059477048264010e-03  -1.5709074010390397e-03  -2.9001930878277296e-03  5.5768059005496719e-03  -4.5994359398324894e-03  9.4919339021321703e-03  1.0113360948250970e-03  -1.3405975904083465e-02  2.0497396746774345e-02  -2.1457987899096264e-02  4.3613012259898988e-14  9.2868312564797773e-03  -4.8162482414100261e-02  1.2871457948890323e-02  -5.7658100134176686e-03  -3.0787104909452172e-02  2.5452049107933000e-02  -5.1456237868374742e-02  -3.9292789362825264e-02  4.4429917367215244e-02  5.3620863518567341e-03  -8.3752722899788440e-02  9.8251809455602823e-14  4.1485769697710596e-02  1.1513455060039247e-02  -8.6749262066508043e-02  -6.6665697201472293e-02  1.5417668695292430e-02  1.0325199268129051e-01  7.2013917927874926e-02  -3.4653374645613789e-04  -2.2350243424684428e-04  5.4523112563525868e-04  -8.5402015603117608e-04  2.0841086577408014e-03  -1.2963268626631779e-03  -2.3932653217971075e-03  4.2952306281252416e-03  -2.3347553296201020e-03  8.1862355138941842e-03  5.1337215439423460e-04  -1.0325221879687940e-02  1.6914635452053663e-02  -1.7707323877843649e-02  3.3590544369682297e-14  4.7141604003160392e-03  -4.1537312421344084e-02  6.5337805416303260e-03  -4.4408007392084054e-03  -2.6552069807726942e-02  1.2919911937432780e-02  -4.4377983053048298e-02  -3.0263128275460686e-02  3.0254443608078004e-02  3.6512995919637070e-03  -6.4505967574127063e-02  8.4736415167108125e-14  2.1058913130258650e-02  9.9296787853680908e-03  -6.6813888458732776e-02  -4.5395843523747773e-02  1.0498623804642705e-02  7.9524216780779491e-02  4.7345007093414066e-04  -2.3597130743685526e-04  0.0000000000000000e+00  4.4992961014352165e-04  0.0000000000000000e+00  1.4191686952191658e-03  -9.9842507411340600e-04  -1.8432821035424148e-03  2.9248267951583968e-03  0.0000000000000000e+00  6.7553548947119693e-03  0.0000000000000000e+00  -7.0309345956699734e-03  1.3027575560783464e-02  -1.3638100593522717e-02  2.2873399065718132e-14  0.0000000000000000e+00  -3.4276962384292099e-02  0.0000000000000000e+00  -3.0239524064078352e-03  -2.1911005911804830e-02  0.0000000000000000e+00  -3.6621109241975050e-02  -2.0607603211289592e-02  1.5357692635072013e-02  1.8534644886667221e-03  -4.3925180914156092e-02  6.9925249033932052e-14  0.0000000000000000e+00  8.1940599035788993e-03  -4.5496753998078426e-02  -2.3043736013753542e-02  5.3292878088130827e-03  -3.2239466829651735e-04  3.2239466830264959e-04  -1.1978322448288873e-04  1.1796070747583586e-03  3.4653374645842046e-04  -3.8021210072396437e-03  7.2039522196576725e-04  -6.7987511324845893e-04  -1.2551784419152241e-03  1.4846940010779779e-03  -1.4847469145191958e-02  5.2029437217391240e-03  -3.7969605490584769e-03  -3.5690272098992813e-03  8.8710957280450659e-03  -9.2868312564653686e-03  1.1610943401281032e-14  5.0736240621081750e-03  -2.6399961070475292e-02  4.8162482414207480e-02  -1.5350119209694561e-03  -1.6875757443188262e-02  6.4657546446072675e-02  -2.8205412355582944e-02  -1.0460785204458570e-02  0.0000000000000000e+00  0.0000000000000000e+00  -2.2297201566761717e-02  5.3856109874691298e-14  1.1768076174820442e-01  6.3110277987397864e-03  -2.3094959961828913e-02  0.0000000000000000e+00  0.0000000000000000e+00  -1.6365325659341881e-04  1.6365325659653163e-04  0.0000000000000000e+00  1.0173418217396732e-03  2.3597130743840958e-04  -3.2791060640020558e-03  0.0000000000000000e+00  -3.4511667623980875e-04  -6.3715085832732670e-04  0.0000000000000000e+00  -1.2805070121749997e-02  3.5429318070601219e-03  -3.2746554719028900e-03  0.0000000000000000e+00  4.5031256661828105e-03  -4.7141604003087256e-03  0.0000000000000000e+00  4.3757027713865844e-03  -1.7976988947801205e-02  4.1537312421436552e-02  0.0000000000000000e+00  -1.1491505772758606e-02  5.5763336367018509e-02  -1.9206406586392798e-02  0.0000000000000000e+00  9.1509270244297281e-02  -1.1513455060032944e-02  0.0000000000000000e+00  3.6673186350704805e-14  1.0149274542555246e-01  4.2974789502281925e-03  0.0000000000000000e+00  1.3960021008209525e-04  -3.0033156391791105e-04  0.0000000000000000e+00  0.0000000000000000e+00  -2.2347220919844190e-03  8.3951958667935391e-04  1.1978322448367774e-04  -2.7059477047953308e-03  4.5073702280368716e-03  0.0000000000000000e+00  0.0000000000000000e+00  1.8214659463156341e-03  -1.0566858597859293e-02  1.7984550773666084e-03  -2.7022750363178065e-03  -7.0638099033881480e-03  0.0000000000000000e+00  0.0000000000000000e+00  1.8428405747108710e-02  3.6108691332323649e-03  -9.1254387071491947e-03  3.4276962384368406e-02  -4.1777027429097190e-02  -5.8332923209026069e-03  4.6016404809395978e-02  -9.7495129244183701e-03  -1.9530390237922777e-02  7.8921371097636167e-02  -9.9296787853626559e-03  -1.1114529019850736e-01  1.8615960393086286e-14  8.3752722899870888e-02  2.1814766015288596e-03  0.0000000000000000e+00  1.0751944907715602e-04  -2.5901833491865273e-04  1.1179448665351195e-14  3.0033156392125185e-04  -1.9273165554784775e-03  6.4659418059731825e-04  0.0000000000000000e+00  -2.0841086577168709e-03  3.8873420965074659e-03  -7.8359573727604694e-03  3.3627716973067190e-03  1.5709074010437935e-03  -8.1385465985323695e-03  0.0000000000000000e+00  -2.0812799851015924e-03  -6.0921211726436553e-03  1.8010237418607945e-02  -3.5093535430356558e-02  1.5893417626680433e-02  2.7810750404067349e-03  0.0000000000000000e+00  2.6399961070534061e-02  -3.6030232524921421e-02  0.0000000000000000e+00  3.5441626418098220e-02  0.0000000000000000e+00  -1.6843814528668583e-02  6.5126622565025771e-02  -8.1940599035744150e-03  -9.5856285052797752e-02  0.0000000000000000e+00  6.4505967574190554e-02  8.1685826219928958e-06  -1.9615193981698673e-04  7.3215105983446435e-05  -2.1374425077840274e-04  9.6416178866876972e-15  2.5901833492153394e-04  -1.5904388903315934e-03  4.4029672647169916e-04  -1.1325587015509971e-03  -1.4191686952028705e-03  3.2078695286118838e-03  -6.7580530155022895e-03  2.9001930878834693e-03  1.2963268626671009e-03  -5.5419234089933997e-03  1.4847469145252921e-02  -1.4172425175010901e-03  -5.0272729770536023e-03  1.5532772003053641e-02  -3.0266113208348003e-02  1.3115390630512586e-02  1.8937662495385477e-03  -3.4484160217540888e-02  1.7976988947841221e-02