<?xml version="1.0"?>
<VTKFile type="UnstructuredGrid"  version="0.1"  >
<UnstructuredGrid>
<Piece  NumberOfPoints="1089" NumberOfCells="2048">
<Points>
<DataArray  type="Float64"  NumberOfComponents="3"  format="ascii">0 0 0  0.03125 0 0  0.0625 0 0  0.09375 0 0  0.125 0 0  0.15625 0 0  0.1875 0 0  0.21875 0 0  0.25 0 0  0.28125 0 0  0.3125 0 0  0.34375 0 0  0.375 0 0  0.40625 0 0  0.4375 0 0  0.46875 0 0  0.5 0 0  0.53125 0 0  0.5625 0 0  0.59375 0 0  0.625 0 0  0.65625 0 0  0.6875 0 0  0.71875 0 0  0.75 0 0  0.78125 0 0  0.8125 0 0  0.84375 0 0  0.875 0 0  0.90625 0 0  0.9375 0 0  0.96875 0 0  1 0 0  0 0.03125 0  0.03125 0.03125 0  0.0625 0.03125 0  0.09375 0.03125 0  0.125 0.03125 0  0.15625 0.03125 0  0.1875 0.03125 0  0.21875 0.03125 0  0.25 0.03125 0  0.28125 0.03125 0  0.3125 0.03125 0  0.34375 0.03125 0  0.375 0.03125 0  0.40625 0.03125 0  0.4375 0.03125 0  0.46875 0.03125 0  0.5 0.03125 0  0.53125 0.03125 0  0.5625 0.03125 0  0.59375 0.03125 0  0.625 0.03125 0  0.65625 0.03125 0  0.6875 0.03125 0  0.71875 0.03125 0  0.75 0.03125 0  0.78125 0.03125 0  0.8125 0.03125 0  0.84375 0.03125 0  0.875 0.03125 0  0.90625 0.03125 0  0.9375 0.03125 0  0.96875 0.03125 0  1 0.03125 0  0 0.0625 0  0.03125 0.0625 0  0.0625 0.0625 0  0.09375 0.0625 0  0.125 0.0625 0  0.15625 0.0625 0  0.1875 0.0625 0  0.21875 0.0625 0  0.25 0.0625 0  0.28125 0.0625 0  0.3125 0.0625 0  0.34375 0.0625 0  0.375 0.0625 0  0.40625 0.0625 0  0.4375 0.0625 0  0.46875 0.0625 0  0.5 0.0625 0  0.53125 0.0625 0  0.5625 0.0625 0  0.59375 0.0625 0  0.625 0.0625 0  0.65625 0.0625 0  0.6875 0.0625 0  0.71875 0.0625 0  0.75 0.0625 0  0.78125 0.0625 0  0.8125 0.0625 0  0.84375 0.0625 0  0.875 0.0625 0  0.90625 0.0625 0  0.9375 0.0625 0  0.96875 0.0625 0  1 0.0625 0  0 0.09375 0  0.03125 0.09375 0  0.0625 0.09375 0  0.09375 0.09375 0  0.125 0.09375 0  0.15625 0.09375 0  0.1875 0.09375 0  0.21875 0.09375 0  0.25 0.09375 0  0.28125 0.09375 0  0.3125 0.09375 0  0.34375 0.09375 0  0.375 0.09375 0  0.40625 0.09375 0  0.4375 0.09375 0  0.46875 0.09375 0  0.5 0.09375 0  0.53125 0.09375 0  0.5625 0.09375 0  0.59375 0.09375 0  0.625 0.09375 0  0.65625 0.09375 0  0.6875 0.09375 0  0.71875 0.09375 0  0.75 0.09375 0  0.78125 0.09375 0  0.8125 0.09375 0  0.84375 0.09375 0  0.875 0.09375 0  0.90625 0.09375 0  0.9375 0.09375 0  0.96875 0.09375 0  1 0.09375 0  0 0.125 0  0.03125 0.125 0  0.0625 0.125 0  0.09375 0.125 0  0.125 0.125 0  0.15625 0.125 0  0.1875 0.125 0  0.21875 0.125 0  0.25 0.125 0  0.28125 0.125 0  0.3125 0.125 0  0.34375 0.125 0  0.375 0.125 0  0.40625 0.125 0  0.4375 0.125 0  0.46875 0.125 0  0.5 0.125 0  0.53125 0.125 0  0.5625 0.125 0  0.59375 0.125 0  0.625 0.125 0  0.65625 0.125 0  0.6875 0.125 0  0.71875 0.125 0  0.75 0.125 0  0.78125 0.125 0  0.8125 0.125 0  0.84375 0.125 0  0.875 0.125 0  0.90625 0.125 0  0.9375 0.125 0  0.96875 0.125 0  1 0.125 0  0 0.15625 0  0.03125 0.15625 0  0.0625 0.15625 0  0.09375 0.15625 0  0.125 0.15625 0  0.15625 0.15625 0  0.1875 0.15625 0  0.21875 0.15625 0  0.25 0.15625 0  0.28125 0.15625 0  0.3125 0.15625 0  0.34375 0.15625 0  0.375 0.15625 0  0.40625 0.15625 0  0.4375 0.15625 0  0.46875 0.15625 0  0.5 0.15625 0  0.53125 0.15625 0  0.5625 0.15625 0  0.59375 0.15625 0  0.625 0.15625 0  0.65625 0.15625 0  0.6875 0.15625 0  0.71875 0.15625 0  0.75 0.15625 0  0.78125 0.15625 0  0.8125 0.15625 0  0.84375 0.15625 0  0.875 0.15625 0  0.90625 0.15625 0  0.9375 0.15625 0  0.96875 0.15625 0  1 0.15625 0  0 0.1875 0  0.03125 0.1875 0  0.0625 0.1875 0  0.09375 0.1875 0  0.125 0.1875 0  0.15625 0.1875 0  0.1875 0.1875 0  0.21875 0.1875 0  0.25 0.1875 0  0.28125 0.1875 0  0.3125 0.1875 0  0.34375 0.1875 0  0.375 0.1875 0  0.40625 0.1875 0  0.4375 0.1875 0  0.46875 0.1875 0  0.5 0.1875 0  0.53125 0.1875 0  0.5625 0.1875 0  0.59375 0.1875 0  0.625 0.1875 0  0.65625 0.1875 0  0.6875 0.1875 0  0.71875 0.1875 0  0.75 0.1875 0  0.78125 0.1875 0  0.8125 0.1875 0  0.84375 0.1875 0  0.875 0.1875 0  0.90625 0.1875 0  0.9375 0.1875 0  0.96875 0.1875 0  1 0.1875 0  0 0.21875 0  0.03125 0.21875 0  0.0625 0.21875 0  0.09375 0.21875 0  0.125 0.21875 0  0.15625 0.21875 0  0.1875 0.21875 0  0.21875 0.21875 0  0.25 0.21875 0  0.28125 0.21875 0  0.3125 0.21875 0  0.34375 0.21875 0  0.375 0.21875 0  0.40625 0.21875 0  0.4375 0.21875 0  0.46875 0.21875 0  0.5 0.21875 0  0.53125 0.21875 0  0.5625 0.21875 0  0.59375 0.21875 0  0.625 0.21875 0  0.65625 0.21875 0  0.6875 0.21875 0  0.71875 0.21875 0  0.75 0.21875 0  0.78125 0.21875 0  0.8125 0.21875 0  0.84375 0.21875 0  0.875 0.21875 0  0.90625 0.21875 0  0.9375 0.21875 0  0.96875 0.21875 0  1 0.21875 0  0 0.25 0  0.03125 0.25 0  0.0625 0.25 0  0.09375 0.25 0  0.125 0.25 0  0.15625 0.25 0  0.1875 0.25 0  0.21875 0.25 0  0.25 0.25 0  0.28125 0.25 0  0.3125 0.25 0  0.34375 0.25 0  0.375 0.25 0  0.40625 0.25 0  0.4375 0.25 0  0.46875 0.25 0  0.5 0.25 0  0.53125 0.25 0  0.5625 0.25 0  0.59375 0.25 0  0.625 0.25 0  0.65625 0.25 0  0.6875 0.25 0  0.71875 0.25 0  0.75 0.25 0  0.78125 0.25 0  0.8125 0.25 0  0.84375 0.25 0  0.875 0.25 0  0.90625 0.25 0  0.9375 0.25 0  0.96875 0.25 0  1 0.25 0  0 0.28125 0  0.03125 0.28125 0  0.0625 0.28125 0  0.09375 0.28125 0  0.125 0.28125 0  0.15625 0.28125 0  0.1875 0.28125 0  0.21875 0.28125 0  0.25 0.28125 0  0.28125 0.28125 0  0.3125 0.28125 0  0.34375 0.28125 0  0.375 0.28125 0  0.40625 0.28125 0  0.4375 0.28125 0  0.46875 0.28125 0  0.5 0.28125 0  0.53125 0.28125 0  0.5625 0.28125 0  0.59375 0.28125 0  0.625 0.28125 0  0.65625 0.28125 0  0.6875 0.28125 0  0.71875 0.28125 0  0.75 0.28125 0  0.78125 0.28125 0  0.8125 0.28125 0  0.84375 0.28125 0  0.875 0.28125 0  0.90625 0.28125 0  0.9375 0.28125 0  0.96875 0.28125 0  1 0.28125 0  0 0.3125 0  0.03125 0.3125 0  0.0625 0.3125 0  0.09375 0.3125 0  0.125 0.3125 0  0.15625 0.3125 0  0.1875 0.3125 0  0.21875 0.3125 0  0.25 0.3125 0  0.28125 0.3125 0  0.3125 0.3125 0  0.34375 0.3125 0  0.375 0.3125 0  0.40625 0.3125 0  0.4375 0.3125 0  0.46875 0.3125 0  0.5 0.3125 0  0.53125 0.3125 0  0.5625 0.3125 0  0.59375 0.3125 0  0.625 0.3125 0  0.65625 0.3125 0  0.6875 0.3125 0  0.71875 0.3125 0  0.75 0.3125 0  0.78125 0.3125 0  0.8125 0.3125 0  0.84375 0.3125 0  0.875 0.3125 0  0.90625 0.3125 0  0.9375 0.3125 0  0.96875 0.3125 0  1 0.3125 0  0 0.34375 0  0.03125 0.34375 0  0.0625 0.34375 0  0.09375 0.34375 0  0.125 0.34375 0  0.15625 0.34375 0  0.1875 0.34375 0  0.21875 0.34375 0  0.25 0.34375 0  0.28125 0.34375 0  0.3125 0.34375 0  0.34375 0.34375 0  0.375 0.34375 0  0.40625 0.34375 0  0.4375 0.34375 0  0.46875 0.34375 0  0.5 0.34375 0  0.53125 0.34375 0  0.5625 0.34375 0  0.59375 0.34375 0  0.625 0.34375 0  0.65625 0.34375 0  0.6875 0.34375 0  0.71875 0.34375 0  0.75 0.34375 0  0.78125 0.34375 0  0.8125 0.34375 0  0.84375 0.34375 0  0.875 0.34375 0  0.90625 0.34375 0  0.9375 0.34375 0  0.96875 0.34375 0  1 0.34375 0  0 0.375 0  0.03125 0.375 0  0.0625 0.375 0  0.09375 0.375 0  0.125 0.375 0  0.15625 0.375 0  0.1875 0.375 0  0.21875 0.375 0  0.25 0.375 0  0.28125 0.375 0  0.3125 0.375 0  0.34375 0.375 0  0.375 0.375 0  0.40625 0.375 0  0.4375 0.375 0  0.46875 0.375 0  0.5 0.375 0  0.53125 0.375 0  0.5625 0.375 0  0.59375 0.375 0  0.625 0.375 0  0.65625 0.375 0  0.6875 0.375 0  0.71875 0.375 0  0.75 0.375 0  0.78125 0.375 0  0.8125 0.375 0  0.84375 0.375 0  0.875 0.375 0  0.90625 0.375 0  0.9375 0.375 0  0.96875 0.375 0  1 0.375 0  0 0.40625 0  0.03125 0.40625 0  0.0625 0.40625 0  0.09375 0.40625 0  0.125 0.40625 0  0.15625 0.40625 0  0.1875 0.40625 0  0.21875 0.40625 0  0.25 0.40625 0  0.28125 0.40625 0  0.3125 0.40625 0  0.34375 0.40625 0  0.375 0.40625 0  0.40625 0.40625 0  0.4375 0.40625 0  0.46875 0.40625 0  0.5 0.40625 0  0.53125 0.40625 0  0.5625 0.40625 0  0.59375 0.40625 0  0.625 0.40625 0  0.65625 0.40625 0  0.6875 0.40625 0  0.71875 0.40625 0  0.75 0.40625 0  0.78125 0.40625 0  0.8125 0.40625 0  0.84375 0.40625 0  0.875 0.40625 0  0.90625 0.40625 0  0.9375 0.40625 0  0.96875 0.40625 0  1 0.40625 0  0 0.4375 0  0.03125 0.4375 0  0.0625 0.4375 0  0.09375 0.4375 0  0.125 0.4375 0  0.15625 0.4375 0  0.1875 0.4375 0  0.21875 0.4375 0  0.25 0.4375 0  0.28125 0.4375 0  0.3125 0.4375 0  0.34375 0.4375 0  0.375 0.4375 0  0.40625 0.4375 0  0.4375 0.4375 0  0.46875 0.4375 0  0.5 0.4375 0  0.53125 0.4375 0  0.5625 0.4375 0  0.59375 0.4375 0  0.625 0.4375 0  0.65625 0.4375 0  0.6875 0.4375 0  0.71875 0.4375 0  0.75 0.4375 0  0.78125 0.4375 0  0.8125 0.4375 0  0.84375 0.4375 0  0.875 0.4375 0  0.90625 0.4375 0  0.9375 0.4375 0  0.96875 0.4375 0  1 0.4375 0  0 0.46875 0  0.03125 0.46875 0  0.0625 0.46875 0  0.09375 0.46875 0  0.125 0.46875 0  0.15625 0.46875 0  0.1875 0.46875 0  0.21875 0.46875 0  0.25 0.46875 0  0.28125 0.46875 0  0.3125 0.46875 0  0.34375 0.46875 0  0.375 0.46875 0  0.40625 0.46875 0  0.4375 0.46875 0  0.46875 0.46875 0  0.5 0.46875 0  0.53125 0.46875 0  0.5625 0.46875 0  0.59375 0.46875 0  0.625 0.46875 0  0.65625 0.46875 0  0.6875 0.46875 0  0.71875 0.46875 0  0.75 0.46875 0  0.78125 0.46875 0  0.8125 0.46875 0  0.84375 0.46875 0  0.875 0.46875 0  0.90625 0.46875 0  0.9375 0.46875 0  0.96875 0.46875 0  1 0.46875 0  0 0.5 0  0.03125 0.5 0  0.0625 0.5 0  0.09375 0.5 0  0.125 0.5 0  0.15625 0.5 0  0.1875 0.5 0  0.21875 0.5 0  0.25 0.5 0  0.28125 0.5 0  0.3125 0.5 0  0.34375 0.5 0  0.375 0.5 0  0.40625 0.5 0  0.4375 0.5 0  0.46875 0.5 0  0.5 0.5 0  0.53125 0.5 0  0.5625 0.5 0  0.59375 0.5 0  0.625 0.5 0  0.65625 0.5 0  0.6875 0.5 0  0.71875 0.5 0  0.75 0.5 0  0.78125 0.5 0  0.8125 0.5 0  0.84375 0.5 0  0.875 0.5 0  0.90625 0.5 0  0.9375 0.5 0  0.96875 0.5 0  1 0.5 0  0 0.53125 0  0.03125 0.53125 0  0.0625 0.53125 0  0.09375 0.53125 0  0.125 0.53125 0  0.15625 0.53125 0  0.1875 0.53125 0  0.21875 0.53125 0  0.25 0.53125 0  0.28125 0.53125 0  0.3125 0.53125 0  0.34375 0.53125 0  0.375 0.53125 0  0.40625 0.53125 0  0.4375 0.53125 0  0.46875 0.53125 0  0.5 0.53125 0  0.53125 0.53125 0  0.5625 0.53125 0  0.59375 0.53125 0  0.625 0.53125 0  0.65625 0.53125 0  0.6875 0.53125 0  0.71875 0.53125 0  0.75 0.53125 0  0.78125 0.531
[...]
<PointData  Scalars="phi"> 
<DataArray  type="Float64"  Name="phi"  format="ascii">0.0000000000000000e+00  0.0000000000000000e+00  0.0000000000000000e+00  0.0000000000000000e+00  0.0000000000000000e+00  0.0000000000000000e+00  0.0000000000000000e+00  0.0000000000000000e+00  0.0000000000000000e+00  0.0000000000000000e+00  0.0000000000000000e+00  0.0000000000000000e+00  0.0000000000000000e+00  0.0000000000000000e+00  0.0000000000000000e+00  0.0000000000000000e+00  0.0000000000000000e+00  0.0000000000000000e+00  0.0000000000000000e+00  0.0000000000000000e+00  0.0000000000000000e+00  0.0000000000000000e+00  0.0000000000000000e+00  0.0000000000000000e+00  0.0000000000000000e+00  0.0000000000000000e+00  0.0000000000000000e+00  0.0000000000000000e+00  0.0000000000000000e+00  0.0000000000000000e+00  0.0000000000000000e+00  0.0000000000000000e+00  0.0000000000000000e+00  0.0000000000000000e+00  -8.0433282414674298e-16  7.0502414351751407e-05  2.7780588770077297e-04  6.8130164729244950e-04  1.3306556811671019e-03  2.2633385150196994e-03  3.5026276471712106e-03  5.0561748421002525e-03  6.9152031592965152e-03  9.0543718675936222e-03  1.1432320356932537e-02  1.3992875158972354e-02  1.6666877993190228e-02  1.9374568259048715e-02  2.2028431488589417e-02  2.4536406777433122e-02  2.6805331828710241e-02  2.8744494527081488e-02  3.0269155288556528e-02  3.1303904998229430e-02  3.1785729151325291e-02  3.1666659664896346e-02  3.0915911372547313e-02  2.9521419971408350e-02  2.7490721635957789e-02  2.4851141264241563e-02  2.1649286582977777e-02  1.7949881138907609e-02  1.3834018208000409e-02  9.3970059644538900e-03  4.7461928940252755e-03  0.0000000000000000e+00  0.0000000000000000e+00  -7.0502414354925287e-05  -3.1328430883178094e-15  3.4394804136136492e-04  1.0801571445975425e-03  2.3081324875312815e-03  4.1031187051057466e-03  6.5121042823354878e-03  9.5509552778279584e-03  1.3202804624586903e-02  1.7417771997658718e-02  2.2114036113271937e-02  2.7180227848260522e-02  3.2479060533655048e-02  3.7852065051900197e-02  4.3125253762417257e-02  4.8115500442387785e-02  5.2637394765177037e-02  5.6510310452269980e-02  5.9565416883316152e-02  6.1652365014167848e-02  6.2645389928460887e-02  6.2448593848603531e-02  6.1000204222556212e-02  5.8275640561219595e-02  5.4289269824557507e-02  4.9094782148114066e-02  4.2784175726623457e-02  3.5485401887787427e-02  2.7358790986777355e-02  1.8592461391962266e-02  9.3970059644539125e-03  0.0000000000000000e+00  0.0000000000000000e+00  -2.7780588770543531e-04  -3.4394804137057136e-04  -6.7647089010354987e-15  9.3232291737701937e-04  2.6026235200162003e-03  5.1244067572164620e-03  8.5690990587482252e-03  1.2961755121762756e-02  1.8278636724397959e-02  2.4446773857732015e-02  3.1345540299016608e-02  3.8810196573137751e-02  4.6637275994326571e-02  5.4591617041202162e-02  6.2414780438060251e-02  6.9834534468899728e-02  7.6575049342725188e-02  8.2367412508548593e-02  8.6960062815093497e-02  9.0128742888768126e-02  9.1685586046525325e-02  9.1486985873744958e-02  8.9439942143741999e-02  8.5506634415079774e-02  7.9707042402880804e-02  7.2119507786681469e-02  6.2879213011219098e-02  5.2174636123022561e-02  4.0242122973906634e-02  2.7358790986777459e-02  1.3834018208000492e-02  0.0000000000000000e+00  0.0000000000000000e+00  -6.8130164729849133e-04  -1.0801571446094741e-03  -9.3232291739455330e-04  -1.1360209188785950e-14  1.9168292939715623e-03  4.9705627068965981e-03  9.2580431842164430e-03  1.4814855596570017e-02  2.1612096002490123e-02  2.9555757816827385e-02  3.8488776928096977e-02  4.8195673805635705e-02  5.8409628968842137e-02  6.8821732756796788e-02  7.9092064798405831e-02  8.8862186228197415e-02  9.7768571309173893e-02  1.0545646689315724e-01  1.1159364956153578e-01  1.1588355208805107e-01  1.1807725301762717e-01  1.1798386485592455e-01  1.1547891606771149e-01  1.1051039756072653e-01  1.0310223275018880e-01  9.3355028279882762e-02  8.1444066094124412e-02  6.7614602119453832e-02  5.2174636123022838e-02  3.5485401887787760e-02  1.7949881138907817e-02  0.0000000000000000e+00  0.0000000000000000e+00  -1.3306556811743843e-03  -2.3081324875456649e-03  -2.6026235200373345e-03  -1.9168292939989403e-03  -1.6489018413562300e-14  3.3398716691930863e-03  8.2262106188054785e-03  1.4706774318819563e-02  2.2749618386888919e-02  3.2242290196449558e-02  4.2994302325476776e-02  5.4742809812250312e-02  6.7161290074954388e-02  7.9870906828605037e-02  9.2454133934356753e-02  1.0447012591077037e-01  1.1547125227045296e-01  1.2502016561286303e-01  1.3270675034435186e-01  1.3816430092350163e-01  1.4108430559603935e-01  1.4122926268023717e-01  1.3844302965447636e-01  1.3265829778245103e-01  1.2390089320270967e-01  1.1229072501515898e-01  9.8039326956830389e-02  8.1444066094125023e-02  6.2879213011219903e-02  4.2784175726624171e-02  2.1649286582978187e-02  0.0000000000000000e+00  0.0000000000000000e+00  -2.2633385150280594e-03  -4.1031187051222568e-03  -5.1244067572407178e-03  -4.9705627069280087e-03  -3.3398716692309006e-03  -2.1664266184364838e-14  5.2003263536506035e-03  1.2322895111670206e-02  2.1335181170653070e-02  3.2109329731160791e-02  4.4425010579287161e-02  5.7976054507724320e-02  7.2380635463266341e-02  8.7194623484265793e-02  1.0192760920418549e-01  1.1606099545160306e-01  1.2906746934328636e-01  1.4043111242696144e-01  1.4966737905584540e-01  1.5634217534598072e-01  1.6008930272135746e-01  1.6062558999438559e-01  1.5776312386524838e-01  1.5141809633380288e-01  1.4161591456191491e-01  1.2849235916258697e-01  1.1229072501516005e-01  9.3355028279884317e-02  7.2119507786683065e-02  4.9094782148115336e-02  2.4851141264242264e-02  0.0000000000000000e+00  0.0000000000000000e+00  -3.5026276471804632e-03  -6.5121042823537596e-03  -8.5690990587750614e-03  -9.2580431842511808e-03  -8.2262106188472697e-03  -5.2003263536984489e-03  -2.6387207341252644e-14  7.4525575571840162e-03  1.7126933518990157e-02  2.8883268534744461e-02  4.2475439267153539e-02  5.7558567456355812e-02  7.3700586440777482e-02  9.0397437844376927e-02  1.0709132910540564e-01  1.2319136219324746e-01  1.3809574989108017e-01  1.5121477205179629e-01  1.6199359274753006e-01  1.6993406146410350e-01  1.7461465737655868e-01  1.7570780391658108e-01  1.7299387868942323e-01  1.6637136753684978e-01  1.5586275636244301e-01  1.4161591456191652e-01  1.2390089320271225e-01  1.0310223275019167e-01  7.9707042402883455e-02  5.4289269824559519e-02  2.7490721635958865e-02  0.0000000000000000e+00  0.0000000000000000e+00  -5.0561748421102011e-03  -9.5509552778476007e-03  -1.2961755121791593e-02  -1.4814855596607323e-02  -1.4706774318864409e-02  -1.2322895111721490e-02  -7.4525575572405075e-03  -3.0187253615451757e-14  1.0009290419518025e-02  2.2427089649234701e-02  3.6985891249374715e-02  5.3307192594423861e-02  7.0914314061415115e-02  8.9249276001936412e-02  1.0769309982179334e-01  1.2558876518086065e-01  1.4226595036735301e-01  1.5706661135672428e-01  1.6937041971107825e-01  1.7861908169300628e-01  1.8433860069364494e-01  1.8615862079685422e-01  1.8382809811551398e-01  1.7722668425224525e-01  1.6637136753685211e-01  1.5141809633380671e-01  1.3265829778245564e-01  1.1051039756073114e-01  8.5506634415083799e-02  5.8275640561222544e-02  2.9521419971409911e-02  0.0000000000000000e+00  0.0000000000000000e+00  -6.9152031593069496e-03  -1.3202804624607501e-02  -1.8278636724428192e-02  -2.1612096002529203e-02  -2.2749618386935854e-02  -2.1335181170706673e-02  -1.7126933519049106e-02  -1.0009290419580898e-02  -3.2661344182907796e-14  1.2748111672718346e-02  2.7950808292924727e-02  4.5201403812225337e-02  6.3984690656433488e-02  8.3695317452648216e-02  1.0365992461250892e-01  1.2316219905871620e-01  1.4146989438717178e-01  1.5786278427134923e-01  1.7166047797971518e-01  1.8224902901085321e-01  1.8910531099367472e-01  1.9181821751179112e-01  1.9010586123429368e-01  1.8382809811551709e-01  1.7299387868942856e-01  1.5776312386525504e-01  1.3844302965448346e-01  1.1547891606771822e-01  8.9439942143747689e-02  6.1000204222560313e-02  3.0915911372549450e-02  0.0000000000000000e+00  0.0000000000000000e+00  -9.0543718676043376e-03  -1.7417771997679861e-02  -2.4446773857763032e-02  -2.9555757816867451e-02  -3.2242290196497617e-02  -3.2109329731215587e-02  -2.8883268534804600e-02  -2.2427089649298688e-02  -1.2748111672784633e-02  -3.3515615857474897e-14  1.5521054154988233e-02  3.3385860078747373e-02  5.3047111256470172e-02  7.3859070535917309e-02  9.5101314045780289e-02  1.1600563271425594e-01  1.3578506625551442e-01  1.5366395976680608e-01  1.6890789088533587e-01  1.8085231743561714e-01  1.8892884160063533e-01  1.9268807512353281e-01  1.9181821751179512e-01  1.8615862079686119e-01  1.7570780391659011e-01  1.6062558999439555e-01  1.4122926268024721e-01  1.1798386485593373e-01  9.1486985873752563e-02  6.2448593848608930e-02  3.1666659664899149e-02  0.0000000000000000e+00  0.0000000000000000e+00  -1.1432320356943325e-02  -2.2114036113293222e-02  -3.1345540299047805e-02  -3.8488776928137250e-02  -4.2994302325525008e-02  -4.4425010579342047e-02  -4.2475439267213637e-02  -3.6985891249438463e-02  -2.7950808292990539e-02  -1.5521054155054498e-02  -3.2576889790051489e-14  1.8166455389903996e-02  3.8405563438582910e-02  6.0038513656274176e-02  8.2305545200768881e-02  1.0439442739257382e-01  1.2547122264214999e-01  1.4471215505039431e-01  1.6133536285117261e-01  1.7463131462999584e-01  1.8399071782985971e-01  1.8892884160064016e-01  1.8910531099368344e-01  1.8433860069365643e-01  1.7461465737657189e-01  1.6008930272137123e-01  1.4108430559605267e-01  1.1807725301763911e-01  9.1685586046535067e-02  6.2645389928467743e-02  3.1785729151328830e-02  0.0000000000000000e+00  0.0000000000000000e+00  -1.3992875158983023e-02  -2.7180227848281564e-02  -3.8810196573168559e-02  -4.8195673805675410e-02  -5.4742809812297802e-02  -5.7976054507778235e-02  -5.7558567456414696e-02  -5.3307192594486102e-02  -4.5201403812289313e-02  -3.3385860078811447e-02  -1.8166455389966592e-02  -2.9824801198769377e-14  2.0522084498711735e-02  4.2695442113777064e-02  6.5729009146846151e-02  8.8774791707317335e-02  1.1096005668219705e-01  1.3142070395731015e-01  1.4933454008579033e-01  1.6395317509046903e-01  1.7463131463000153e-01  1.8085231743562757e-01  1.8224902901086737e-01  1.7861908169302287e-01  1.6993406146412141e-01  1.5634217534599870e-01  1.3816430092351861e-01  1.1588355208806600e-01  9.0128742888780172e-02  6.1652365014176286e-02  3.1303904998233767e-02  0.0000000000000000e+00  0.0000000000000000e+00  -1.6666877993200588e-02  -3.2479060533675483e-02  -4.6637275994356464e-02  -5.8409628968880592e-02  -6.7161290075000282e-02  -7.2380635463318327e-02  -7.3700586440834048e-02  -7.0914314061474665e-02  -6.3984690656494397e-02  -5.3047111256530791e-02  -3.8405563438641641e-02  -2.0522084498767117e-02  -2.5370832159503420e-14  2.2438422123753451e-02  4.5979051849965584e-02  6.9746678342657659e-02  9.2838315093419527e-02  1.1435775319073631e-01  1.3345003729796917e-01  1.4933454008579677e-01  1.6133536285118460e-01  1.6890789088535241e-01  1.7166047797973513e-01  1.6937041971110034e-01  1.6199359274755298e-01  1.4966737905586791e-01  1.3270675034437271e-01  1.1159364956155388e-01  8.6960062815107958e-02  5.9565416883326228e-02  3.0269155288561694e-02  0.0000000000000000e+00  0.0000000000000000e+00  -1.9374568259058617e-02  -3.7852065051919709e-02  -5.4591617041230653e-02  -6.8821732756833398e-02  -7.9870906828648600e-02  -8.7194623484315004e-02  -9.0397437844430273e-02  -8.9249276001992284e-02  -8.3695317452704962e-02  -7.3859070535973334e-02  -6.0038513656327931e-02  -4.2695442113827080e-02  -2.2438422123798457e-02  -1.9472440500044432e-14  2.3790963950205017e-02  4.8040779024693295e-02  7.1825019737657328e-02  9.4223926510174721e-02  1.1435775319074337e-01  1.3142070395732350e-01  1.4471215505041307e-01  1.5366395976682914e-01  1.5786278427137532e-01  1.5706661135675207e-01  1.5121477205182443e-01  1.4043111242698855e-01  1.2502016561288784e-01  1.0545646689317861e-01  8.2367412508565579e-02  5.6510310452281734e-02  2.8744494527087504e-02  0.0000000000000000e+00  0.0000000000000000e+00  -2.2028431488598725e-02  -4.3125253762435568e-02  -6.2414780438086966e-02  -7.9092064798440054e-02  -9.2454133934397414e-02  -1.0192760920423125e-01  -1.0709132910545499e-01  -1.0769309982184469e-01  -1.0365992461256068e-01  -9.5101314045830887e-02  -8.2305545200816788e-02  -6.5729009146889922e-02  -4.5979051850004012e-02  -2.3790963950237113e-02  -1.2511695767012070e-14  2.4490500888855592e-02  4.8743670811589659e-02  7.1825019737664794e-02  9.2838315093433960e-02  1.1096005668221760e-01  1.2547122264217569e-01  1.3578506625554410e-01  1.4146989438720409e-01  1.4226595036738654e-01  1.3809574989111353e-01  1.2906746934331809e-01  1.1547125227048170e-01  9.7768571309198471e-02  7.6575049342744603e-02  5.2637394765190443e-02  2.6805331828717083e-02  0.0000000000000000e+00  0.0000000000000000e+00  -2.4536406777441726e-02  -4.8115500442404688e-02  -6.9834534468924347e-02  -8.8862186228228890e-02  -1.0447012591080762e-01  -1.1606099545164478e-01  -1.2319136219329220e-01  -1.2558876518090686e-01  -1.2316219905876233e-01  -1.1600563271430042e-01  -1.0439442739261520e-01  -8.8774791707354236e-02  -6.9746678342688939e-02  -4.8040779024718011e-02  -2.4490500888873085e-02  -4.9389011171180557e-15  2.4490500888863259e-02  4.8040779024708331e-02  6.9746678342679475e-02  8.8774791707345063e-02  1.0439442739260640e-01  1.1600563271429212e-01  1.2316219905875464e-01  1.2558876518089984e-01  1.2319136219328589e-01  1.1606099545163923e-01  1.0447012591080289e-01  8.8862186228225074e-02  6.9834534468921461e-02  4.8115500442402759e-02  2.4536406777440758e-02  0.0000000000000000e+00  0.0000000000000000e+00  -2.6805331828718051e-02  -5.2637394765192372e-02  -7.6575049342747475e-02  -9.7768571309202301e-02  -1.1547125227048644e-01  -1.2906746934332364e-01  -1.3809574989111989e-01  -1.4226595036739359e-01  -1.4146989438721180e-01  -1.3578506625555237e-01  -1.2547122264218447e-01  -1.1096005668222675e-01  -9.2838315093443369e-02  -7.1825019737674439e-02  -4.8743670811599457e-02  -2.4490500888865431e-02  2.7255920331263842e-15  2.3790963950227475e-02  4.5979051849994595e-02  6.5729009146880790e-02  8.2305545200808031e-02  9.5101314045822671e-02  1.0365992461255308e-01  1.0769309982183772e-01  1.0709132910544873e-01  1.0192760920422578e-01  9.2454133934392793e-02  7.9092064798436307e-02  6.2414780438084121e-02  4.3125253762433660e-02  2.2028431488597768e-02  0.0000000000000000e+00  0.0000000000000000e+00  -2.8744494527088452e-02  -5.6510310452283621e-02  -8.2367412508568383e-02  -1.0545646689318239e-01  -1.2502016561289253e-01  -1.4043111242699408e-01  -1.5121477205183070e-01  -1.5706661135675906e-01  -1.5786278427138298e-01  -1.5366395976683733e-01  -1.4471215505042173e-01  -1.3142070395733255e-01  -1.1435775319075270e-01  -9.4223926510184297e-02  -7.1825019737667029e-02  -4.8040779024703023e-02  -2.3790963950214666e-02  9.9811008964879734e-15  2.2438422123789183e-02  4.2695442113818101e-02  6.0038513656319362e-02  7.3859070535965285e-02  8.3695317452697510e-02  8.9249276001985456e-02  9.0397437844424139e-02  8.7194623484309633e-02  7.9870906828644089e-02  6.8821732756829707e-02  5.4591617041227863e-02  3.7852065051917828e-02  1.9374568259057676e-02  0.0000000000000000e+00  0.0000000000000000e+00  -3.0269155288562624e-02  -5.9565416883328080e-02  -8.6960062815110720e-02  -1.1159364956155758e-01  -1.3270675034437732e-01  -1.4966737905587330e-01  -1.6199359274755917e-01  -1.6937041971110717e-01  -1.7166047797974265e-01  -1.6890789088536040e-01  -1.6133536285119315e-01  -1.4933454008580566e-01  -1.3345003729797839e-01  -1.1435775319074570e-01  -9.2838315093429047e-02  -6.9746678342667165e-02  -4.5979051849975000e-02  -2.2438422123762708e-02  1.6340966633325681e-14  2.0522084498758392e-02  3.8405563438633314e-02  5.3047111256522950e-02  6.3984690656487125e-02  7.0914314061468031e-02  7.3700586440828081e-02  7.2380635463313095e-02  6.7161290074995855e-02  5.8409628968876984e-02  4.6637275994353730e-02  3.2479060533673651e-02  1.6666877993199672e-02  0.0000000000000000e+00  0.0000000000000000e+00  -3.1303904998234662e-02  -6.1652365014178076e-02  -9.0128742888782837e-02  -1.1588355208806955e-01  -1.3816430092352300e-01  -1.5634217534600386e-01  -1.6993406146412732e-01  -1.7861908169302945e-01  -1.8224902901087456e-01  -1.8085231743563529e-01  -1.7463131463000975e-01  -1.6395317509047763e-01  -1.4933454008579930e-01  -1.3142070395731925e-01  -1.1096005668220624e-01  -8.8774791707326467e-02  -6.5729009146855200e-02  -4.2695442113785967e-02  -2.0522084498720422e-02  2.1426490023927626e-14  1.8166455389958577e-02  3.3385860078803897e-02  4.5201403812282312e-02  5.3307192594479705e-02  5.7558567456408957e-02  5.7976054507773198e-02  5.4742809812293507e-02  4.8195673805671926e-02  3.8810196573165923e-02  2.7180227848279788e-02  1.3992875158982137e-02  0.0000000000000000e+00  0.0000000000000000e+00  -3.1785729151329691e-02  -6.2645389928469464e-02  -9.1685586046537620e-02  -1.1807725301764248e-01  -1.4108430559605681e-01  -1.6008930272137614e-01  -1.7461465737657753e-01  -1.8433860069366270e-01  -1.8910531099369032e-01  -1.8892884160064755e-01  -1.8399071782986759e-01  -1.7463131463000409e-01  -1.6133536285118116e-01  -1.4471215505040300e-01  -1.2547122264215874e-01  -1.0439442739258253e-01  -8.2305545200777513e-02  -6.0038513656282655e-02  -3.8405563438591195e-02  -1.8166455389911997e-02  2.4948422552812222e-14  1.5521054155047318e-02  2.7950808292983877e-02  3.6985891249432391e-02  4.2475439267208169e-02  4.4425010579337246e-02  4.2994302325520914e-02  3.8488776928133919e-02  3.1345540299045280e-02  2.2114036113291539e-02  1.1432320356942482e-02  0.0000000000000000e+00  0.0000000000000000e+00  -3.1666659664899954e-02  -6.2448593848610547e-02  -9.1486985873754964e-02  -1.1798386485593690e-01  -1.4122926268025110e-01  -1.6062558999440019e-01  -1.7570780391659541e-01  -1.8615862079686710e-01  -1.9181821751180156e-01  -1.9268807512353980e-01  -1.8892884160064274e-01  -1.8085231743562491e-01  -1.6890789088534386e-01  -1.5366395976681427e-01  -1.3578506625552267e-01  -1.1600563271426415e-01  -9.5101314045788393e-02  -7.3859070535925289e-02  -5.3047111256477972e-02  -3.3385860078754902e-02  -1.5521054154995415e-02  2.6757307205129498e-14  1.2748111672778364e-02  2.2427089649292971e-02  2.8883268534799458e-02  3.2109329731211070e-02  3.2242290196493772e-02  2.9555757816864328e-02  2.4446773857760659e-02  1.7417771997678279e-02  9.0543718676035431e-03  0.0000000000000000e+00  0.0000000000000000e+00  -3.0915911372550200e-02  -6.1000204222561805e-02  -8.9439942143749923e-02  -1.1547891606772118e-01  -1.3844302965448713e-01  -1.5776312386525940e-01  -1.7299387868943350e-01  -1.8382809811552256e-01  -1.9010586123429973e-01  -1.9181821751179762e-01  -1.8910531099368161e-01  -1.8224902901086049e-01  -1.7166047797972267e-01  -1.5786278427135680e-01  -1.4146989438717944e-01  -1.2316219905872383e-01  -1.0365992461251644e-01  -8.3695317452655627e-02  -6.3984690656440746e-02  -4.5201403812232331e-02  -2.7950808292931392e-02  -1.2748111672724615e-02  2.6841498635162450e-14  1.0009290419575576e-02  1.7126933519044332e-02  2.1335181170702482e-02  2.2749618386932294e-02  2.1612096002526306e-02  1.8278636724425985e-02  1.3202804624606030e-02  6.9152031593062123e-03  0.0000000000000000e+00  0.0000000000000000e+00  -2.9521419971410601e-02  -5.8275640561223932e-02  -8.5506634415085853e-02  -1.1051039756073383e-01  -1.3265829778245897e-01  -1.5141809633381065e-01  -1.6637136753685661e-01  -1.7722668425225024e-01  -1.8382809811551942e-01  -1.8615862079686013e-01  -1.8433860069365124e-01  -1.7861908169301288e-01  -1.6937041971108513e-01  -1.5706661135673122e-01  -1.4226595036736001e-01  -1.2558876518086765e-01  -1.0769309982180023e-01  -8.9249276001943170e-02  -7.0914314061421721e-02  -5.3307192594430231e-02  -3.6985891249380801e-02  -2.2427089649240423e-02  -1.0009290419523335e-02  2.5327113434413016e-14  7.452557557236146