<?xml version="1.0"?>
<VTKFile type="UnstructuredGrid"  version="0.1"  >
<UnstructuredGrid>
<Piece  NumberOfPoints="1089" NumberOfCells="2048">
<Points>
<DataArray  type="Float64"  NumberOfComponents="3"  format="ascii">0 0 0  0.03125 0 0  0.0625 0 0  0.09375 0 0  0.125 0 0  0.15625 0 0  0.1875 0 0  0.21875 0 0  0.25 0 0  0.28125 0 0  0.3125 0 0  0.34375 0 0  0.375 0 0  0.40625 0 0  0.4375 0 0  0.46875 0 0  0.5 0 0  0.53125 0 0  0.5625 0 0  0.59375 0 0  0.625 0 0  0.65625 0 0  0.6875 0 0  0.71875 0 0  0.75 0 0  0.78125 0 0  0.8125 0 0  0.84375 0 0  0.875 0 0  0.90625 0 0  0.9375 0 0  0.96875 0 0  1 0 0  0 0.03125 0  0.03125 0.03125 0  0.0625 0.03125 0  0.09375 0.03125 0  0.125 0.03125 0  0.15625 0.03125 0  0.1875 0.03125 0  0.21875 0.03125 0  0.25 0.03125 0  0.28125 0.03125 0  0.3125 0.03125 0  0.34375 0.03125 0  0.375 0.03125 0  0.40625 0.03125 0  0.4375 0.03125 0  0.46875 0.03125 0  0.5 0.03125 0  0.53125 0.03125 0  0.5625 0.03125 0  0.59375 0.03125 0  0.625 0.03125 0  0.65625 0.03125 0  0.6875 0.03125 0  0.71875 0.03125 0  0.75 0.03125 0  0.78125 0.03125 0  0.8125 0.03125 0  0.84375 0.03125 0  0.875 0.03125 0  0.90625 0.03125 0  0.9375 0.03125 0  0.96875 0.03125 0  1 0.03125 0  0 0.0625 0  0.03125 0.0625 0  0.0625 0.0625 0  0.09375 0.0625 0  0.125 0.0625 0  0.15625 0.0625 0  0.1875 0.0625 0  0.21875 0.0625 0  0.25 0.0625 0  0.28125 0.0625 0  0.3125 0.0625 0  0.34375 0.0625 0  0.375 0.0625 0  0.40625 0.0625 0  0.4375 0.0625 0  0.46875 0.0625 0  0.5 0.0625 0  0.53125 0.0625 0  0.5625 0.0625 0  0.59375 0.0625 0  0.625 0.0625 0  0.65625 0.0625 0  0.6875 0.0625 0  0.71875 0.0625 0  0.75 0.0625 0  0.78125 0.0625 0  0.8125 0.0625 0  0.84375 0.0625 0  0.875 0.0625 0  0.90625 0.0625 0  0.9375 0.0625 0  0.96875 0.0625 0  1 0.0625 0  0 0.09375 0  0.03125 0.09375 0  0.0625 0.09375 0  0.09375 0.09375 0  0.125 0.09375 0  0.15625 0.09375 0  0.1875 0.09375 0  0.21875 0.09375 0  0.25 0.09375 0  0.28125 0.09375 0  0.3125 0.09375 0  0.34375 0.09375 0  0.375 0.09375 0  0.40625 0.09375 0  0.4375 0.09375 0  0.46875 0.09375 0  0.5 0.09375 0  0.53125 0.09375 0  0.5625 0.09375 0  0.59375 0.09375 0  0.625 0.09375 0  0.65625 0.09375 0  0.6875 0.09375 0  0.71875 0.09375 0  0.75 0.09375 0  0.78125 0.09375 0  0.8125 0.09375 0  0.84375 0.09375 0  0.875 0.09375 0  0.90625 0.09375 0  0.9375 0.09375 0  0.96875 0.09375 0  1 0.09375 0  0 0.125 0  0.03125 0.125 0  0.0625 0.125 0  0.09375 0.125 0  0.125 0.125 0  0.15625 0.125 0  0.1875 0.125 0  0.21875 0.125 0  0.25 0.125 0  0.28125 0.125 0  0.3125 0.125 0  0.34375 0.125 0  0.375 0.125 0  0.40625 0.125 0  0.4375 0.125 0  0.46875 0.125 0  0.5 0.125 0  0.53125 0.125 0  0.5625 0.125 0  0.59375 0.125 0  0.625 0.125 0  0.65625 0.125 0  0.6875 0.125 0  0.71875 0.125 0  0.75 0.125 0  0.78125 0.125 0  0.8125 0.125 0  0.84375 0.125 0  0.875 0.125 0  0.90625 0.125 0  0.9375 0.125 0  0.96875 0.125 0  1 0.125 0  0 0.15625 0  0.03125 0.15625 0  0.0625 0.15625 0  0.09375 0.15625 0  0.125 0.15625 0  0.15625 0.15625 0  0.1875 0.15625 0  0.21875 0.15625 0  0.25 0.15625 0  0.28125 0.15625 0  0.3125 0.15625 0  0.34375 0.15625 0  0.375 0.15625 0  0.40625 0.15625 0  0.4375 0.15625 0  0.46875 0.15625 0  0.5 0.15625 0  0.53125 0.15625 0  0.5625 0.15625 0  0.59375 0.15625 0  0.625 0.15625 0  0.65625 0.15625 0  0.6875 0.15625 0  0.71875 0.15625 0  0.75 0.15625 0  0.78125 0.15625 0  0.8125 0.15625 0  0.84375 0.15625 0  0.875 0.15625 0  0.90625 0.15625 0  0.9375 0.15625 0  0.96875 0.15625 0  1 0.15625 0  0 0.1875 0  0.03125 0.1875 0  0.0625 0.1875 0  0.09375 0.1875 0  0.125 0.1875 0  0.15625 0.1875 0  0.1875 0.1875 0  0.21875 0.1875 0  0.25 0.1875 0  0.28125 0.1875 0  0.3125 0.1875 0  0.34375 0.1875 0  0.375 0.1875 0  0.40625 0.1875 0  0.4375 0.1875 0  0.46875 0.1875 0  0.5 0.1875 0  0.53125 0.1875 0  0.5625 0.1875 0  0.59375 0.1875 0  0.625 0.1875 0  0.65625 0.1875 0  0.6875 0.1875 0  0.71875 0.1875 0  0.75 0.1875 0  0.78125 0.1875 0  0.8125 0.1875 0  0.84375 0.1875 0  0.875 0.1875 0  0.90625 0.1875 0  0.9375 0.1875 0  0.96875 0.1875 0  1 0.1875 0  0 0.21875 0  0.03125 0.21875 0  0.0625 0.21875 0  0.09375 0.21875 0  0.125 0.21875 0  0.15625 0.21875 0  0.1875 0.21875 0  0.21875 0.21875 0  0.25 0.21875 0  0.28125 0.21875 0  0.3125 0.21875 0  0.34375 0.21875 0  0.375 0.21875 0  0.40625 0.21875 0  0.4375 0.21875 0  0.46875 0.21875 0  0.5 0.21875 0  0.53125 0.21875 0  0.5625 0.21875 0  0.59375 0.21875 0  0.625 0.21875 0  0.65625 0.21875 0  0.6875 0.21875 0  0.71875 0.21875 0  0.75 0.21875 0  0.78125 0.21875 0  0.8125 0.21875 0  0.84375 0.21875 0  0.875 0.21875 0  0.90625 0.21875 0  0.9375 0.21875 0  0.96875 0.21875 0  1 0.21875 0  0 0.25 0  0.03125 0.25 0  0.0625 0.25 0  0.09375 0.25 0  0.125 0.25 0  0.15625 0.25 0  0.1875 0.25 0  0.21875 0.25 0  0.25 0.25 0  0.28125 0.25 0  0.3125 0.25 0  0.34375 0.25 0  0.375 0.25 0  0.40625 0.25 0  0.4375 0.25 0  0.46875 0.25 0  0.5 0.25 0  0.53125 0.25 0  0.5625 0.25 0  0.59375 0.25 0  0.625 0.25 0  0.65625 0.25 0  0.6875 0.25 0  0.71875 0.25 0  0.75 0.25 0  0.78125 0.25 0  0.8125 0.25 0  0.84375 0.25 0  0.875 0.25 0  0.90625 0.25 0  0.9375 0.25 0  0.96875 0.25 0  1 0.25 0  0 0.28125 0  0.03125 0.28125 0  0.0625 0.28125 0  0.09375 0.28125 0  0.125 0.28125 0  0.15625 0.28125 0  0.1875 0.28125 0  0.21875 0.28125 0  0.25 0.28125 0  0.28125 0.28125 0  0.3125 0.28125 0  0.34375 0.28125 0  0.375 0.28125 0  0.40625 0.28125 0  0.4375 0.28125 0  0.46875 0.28125 0  0.5 0.28125 0  0.53125 0.28125 0  0.5625 0.28125 0  0.59375 0.28125 0  0.625 0.28125 0  0.65625 0.28125 0  0.6875 0.28125 0  0.71875 0.28125 0  0.75 0.28125 0  0.78125 0.28125 0  0.8125 0.28125 0  0.84375 0.28125 0  0.875 0.28125 0  0.90625 0.28125 0  0.9375 0.28125 0  0.96875 0.28125 0  1 0.28125 0  0 0.3125 0  0.03125 0.3125 0  0.0625 0.3125 0  0.09375 0.3125 0  0.125 0.3125 0  0.15625 0.3125 0  0.1875 0.3125 0  0.21875 0.3125 0  0.25 0.3125 0  0.28125 0.3125 0  0.3125 0.3125 0  0.34375 0.3125 0  0.375 0.3125 0  0.40625 0.3125 0  0.4375 0.3125 0  0.46875 0.3125 0  0.5 0.3125 0  0.53125 0.3125 0  0.5625 0.3125 0  0.59375 0.3125 0  0.625 0.3125 0  0.65625 0.3125 0  0.6875 0.3125 0  0.71875 0.3125 0  0.75 0.3125 0  0.78125 0.3125 0  0.8125 0.3125 0  0.84375 0.3125 0  0.875 0.3125 0  0.90625 0.3125 0  0.9375 0.3125 0  0.96875 0.3125 0  1 0.3125 0  0 0.34375 0  0.03125 0.34375 0  0.0625 0.34375 0  0.09375 0.34375 0  0.125 0.34375 0  0.15625 0.34375 0  0.1875 0.34375 0  0.21875 0.34375 0  0.25 0.34375 0  0.28125 0.34375 0  0.3125 0.34375 0  0.34375 0.34375 0  0.375 0.34375 0  0.40625 0.34375 0  0.4375 0.34375 0  0.46875 0.34375 0  0.5 0.34375 0  0.53125 0.34375 0  0.5625 0.34375 0  0.59375 0.34375 0  0.625 0.34375 0  0.65625 0.34375 0  0.6875 0.34375 0  0.71875 0.34375 0  0.75 0.34375 0  0.78125 0.34375 0  0.8125 0.34375 0  0.84375 0.34375 0  0.875 0.34375 0  0.90625 0.34375 0  0.9375 0.34375 0  0.96875 0.34375 0  1 0.34375 0  0 0.375 0  0.03125 0.375 0  0.0625 0.375 0  0.09375 0.375 0  0.125 0.375 0  0.15625 0.375 0  0.1875 0.375 0  0.21875 0.375 0  0.25 0.375 0  0.28125 0.375 0  0.3125 0.375 0  0.34375 0.375 0  0.375 0.375 0  0.40625 0.375 0  0.4375 0.375 0  0.46875 0.375 0  0.5 0.375 0  0.53125 0.375 0  0.5625 0.375 0  0.59375 0.375 0  0.625 0.375 0  0.65625 0.375 0  0.6875 0.375 0  0.71875 0.375 0  0.75 0.375 0  0.78125 0.375 0  0.8125 0.375 0  0.84375 0.375 0  0.875 0.375 0  0.90625 0.375 0  0.9375 0.375 0  0.96875 0.375 0  1 0.375 0  0 0.40625 0  0.03125 0.40625 0  0.0625 0.40625 0  0.09375 0.40625 0  0.125 0.40625 0  0.15625 0.40625 0  0.1875 0.40625 0  0.21875 0.40625 0  0.25 0.40625 0  0.28125 0.40625 0  0.3125 0.40625 0  0.34375 0.40625 0  0.375 0.40625 0  0.40625 0.40625 0  0.4375 0.40625 0  0.46875 0.40625 0  0.5 0.40625 0  0.53125 0.40625 0  0.5625 0.40625 0  0.59375 0.40625 0  0.625 0.40625 0  0.65625 0.40625 0  0.6875 0.40625 0  0.71875 0.40625 0  0.75 0.40625 0  0.78125 0.40625 0  0.8125 0.40625 0  0.84375 0.40625 0  0.875 0.40625 0  0.90625 0.40625 0  0.9375 0.40625 0  0.96875 0.40625 0  1 0.40625 0  0 0.4375 0  0.03125 0.4375 0  0.0625 0.4375 0  0.09375 0.4375 0  0.125 0.4375 0  0.15625 0.4375 0  0.1875 0.4375 0  0.21875 0.4375 0  0.25 0.4375 0  0.28125 0.4375 0  0.3125 0.4375 0  0.34375 0.4375 0  0.375 0.4375 0  0.40625 0.4375 0  0.4375 0.4375 0  0.46875 0.4375 0  0.5 0.4375 0  0.53125 0.4375 0  0.5625 0.4375 0  0.59375 0.4375 0  0.625 0.4375 0  0.65625 0.4375 0  0.6875 0.4375 0  0.71875 0.4375 0  0.75 0.4375 0  0.78125 0.4375 0  0.8125 0.4375 0  0.84375 0.4375 0  0.875 0.4375 0  0.90625 0.4375 0  0.9375 0.4375 0  0.96875 0.4375 0  1 0.4375 0  0 0.46875 0  0.03125 0.46875 0  0.0625 0.46875 0  0.09375 0.46875 0  0.125 0.46875 0  0.15625 0.46875 0  0.1875 0.46875 0  0.21875 0.46875 0  0.25 0.46875 0  0.28125 0.46875 0  0.3125 0.46875 0  0.34375 0.46875 0  0.375 0.46875 0  0.40625 0.46875 0  0.4375 0.46875 0  0.46875 0.46875 0  0.5 0.46875 0  0.53125 0.46875 0  0.5625 0.46875 0  0.59375 0.46875 0  0.625 0.46875 0  0.65625 0.46875 0  0.6875 0.46875 0  0.71875 0.46875 0  0.75 0.46875 0  0.78125 0.46875 0  0.8125 0.46875 0  0.84375 0.46875 0  0.875 0.46875 0  0.90625 0.46875 0  0.9375 0.46875 0  0.96875 0.46875 0  1 0.46875 0  0 0.5 0  0.03125 0.5 0  0.0625 0.5 0  0.09375 0.5 0  0.125 0.5 0  0.15625 0.5 0  0.1875 0.5 0  0.21875 0.5 0  0.25 0.5 0  0.28125 0.5 0  0.3125 0.5 0  0.34375 0.5 0  0.375 0.5 0  0.40625 0.5 0  0.4375 0.5 0  0.46875 0.5 0  0.5 0.5 0  0.53125 0.5 0  0.5625 0.5 0  0.59375 0.5 0  0.625 0.5 0  0.65625 0.5 0  0.6875 0.5 0  0.71875 0.5 0  0.75 0.5 0  0.78125 0.5 0  0.8125 0.5 0  0.84375 0.5 0  0.875 0.5 0  0.90625 0.5 0  0.9375 0.5 0  0.96875 0.5 0  1 0.5 0  0 0.53125 0  0.03125 0.53125 0  0.0625 0.53125 0  0.09375 0.53125 0  0.125 0.53125 0  0.15625 0.53125 0  0.1875 0.53125 0  0.21875 0.53125 0  0.25 0.53125 0  0.28125 0.53125 0  0.3125 0.53125 0  0.34375 0.53125 0  0.375 0.53125 0  0.40625 0.53125 0  0.4375 0.53125 0  0.46875 0.53125 0  0.5 0.53125 0  0.53125 0.53125 0  0.5625 0.53125 0  0.59375 0.53125 0  0.625 0.53125 0  0.65625 0.53125 0  0.6875 0.53125 0  0.71875 0.53125 0  0.75 0.53125 0  0.78125 0.531
[...]
<PointData  Scalars="theta_dt"> 
<DataArray  type="Float64"  Name="theta_dt"  format="ascii">-4.8634200062035816e-02  -5.3909783481575713e-01  -1.0304846180218248e+00  -5.4223661985073313e-01  -7.6755431759524206e-02  -6.2844837466154257e-01  -1.0173881423281572e+00  -1.3379649766061563e+00  -1.0199490617514884e+00  -1.0396137493849712e-01  -6.3742046718514789e-01  -1.5220102085421172e+00  -1.6503814756744899e+00  -1.1630220953230193e+00  -1.7167371152543212e+00  -5.1016326373014165e-01  -6.5470050805657778e-02  -4.9300535316297794e-01  -1.2758467622881422e+00  -1.1928877531135120e+00  -1.3482715529316935e+00  -1.4804136329370330e+00  -1.4342238789926096e+00  -1.2196821147830554e+00  -9.8867825307083468e-01  -1.7669185497250068e+00  -9.2829790486714081e-01  -3.7914141967974696e-01  -5.4230793446695036e-01  -7.2038390243869699e-01  -7.1208089026975244e-02  -9.3645606042866147e-02  -1.1028570263068026e-01  -7.0908770521398257e-01  -4.8269588006870347e-02  -5.6142461826960210e-01  -1.1335373563674882e+00  -5.3817145566385260e-01  -8.3826057629259709e-02  -6.0548298917466947e-01  -1.1064446289664798e+00  -1.4612168372175411e+00  -1.0820902773907968e+00  -1.0826694427288162e-01  -6.6381929096219983e-01  -1.6147399027209903e+00  -1.8024128002248638e+00  -1.2648265663827969e+00  -6.6288816131903228e-01  -5.5715894192032289e-01  -6.4979219872989213e-02  -5.4230793446695191e-01  -1.3286860662924549e+00  -1.1839446378841127e+00  -1.4342238789926096e+00  -1.6100007899282160e+00  -1.5597678424042354e+00  -1.2974368627732122e+00  -9.8126610258229496e-01  -1.8400956342773394e+00  -1.0211315478192715e+00  -3.7629898509561754e-01  -5.9226474433570642e-01  -6.5470050805657778e-02  -7.7441248197141599e-02  -1.0227213617233266e-01  -8.4667954945645163e-01  -7.7950820686092415e-01  -4.9726609924212621e-02  -5.7315067288664701e-01  -1.2379575696672331e+00  -5.5441621014733056e-01  -9.0394275610171229e-02  -6.0094366506182018e-01  -1.2163272080091816e+00  -1.5757109572520358e+00  -1.1269051398156702e+00  -1.1052823467670697e-01  -6.7768398625408466e-01  -1.6816144954461776e+00  -1.9436414407965246e+00  -1.3904382793572532e+00  -6.5791846891049843e-01  -6.0081531183732273e-01  -6.6940623552533191e-02  -5.9226474433570819e-01  -1.3564373348960166e+00  -1.2196821147830559e+00  -1.5597678424042354e+00  -1.7698922426287012e+00  -1.7146705901281249e+00  -1.4110072532922324e+00  -1.0108857094039632e+00  -1.8785283306821137e+00  -1.1151970617888165e+00  -3.8765760428830531e-01  -6.3867184080695794e-01  -6.4979219872989213e-02  -8.5132047947452230e-02  -5.2896681843935561e-02  -8.8174485622395826e-01  -8.5746226253051971e-01  -5.2896681843935506e-02  -5.4223661985073313e-01  -1.3349581372551291e+00  -5.8976024953199557e-01  -9.5901619441249072e-02  -6.1908320441232068e-01  -1.3379649766061568e+00  -1.6717124126694993e+00  -1.1504419616572830e+00  -6.2120297152350450e-02  -6.6288816131903272e-01  -1.7167371152543227e+00  -2.0620593563840197e+00  -1.5294878776554424e+00  -6.7777779791265258e-01  -6.3742046718514744e-01  -7.1208089026975258e-02  -6.3867184080695993e-01  -9.8867825307083645e-01  -1.2974368627732125e+00  -1.7146705901281249e+00  -1.9468888119998817e+00  -1.8861447650776586e+00  -1.5511363767753801e+00  -1.0753296842961728e+00  -7.1389931829140552e-01  -1.2025786898965933e+00  -4.1237078074844097e-01  -6.7758343558227552e-01  -6.6940623552533163e-02  -7.4579228895659744e-01  -5.7526962504634065e-02  -9.0016119923051907e-01  -9.3645074213109125e-01  -5.7526962504634002e-02  -5.3817145566385249e-01  -1.4162915337819766e+00  -6.4138457420917350e-01  -9.9873393304651045e-02  -6.5854976537979137e-01  -1.4612168372175418e+00  -1.7409465268215853e+00  -3.3075532109753492e-01  -6.1654579423194487e-02  -6.5791846891049910e-01  -1.0693042982807168e+00  -2.1474597229699759e+00  -1.6703826170542011e+00  -7.2098613984967963e-01  -6.6381929096219938e-01  -7.7441248197141654e-02  -6.7758343558227740e-01  -9.8126610258229696e-01  -1.4110072532922329e+00  -1.8861447650776586e+00  -2.1262340659325698e+00  -2.0598943442840767e+00  -1.7062564517175249e+00  -1.1694580505283247e+00  -7.0854719371052510e-01  -1.2758467622881424e+00  -4.4846742017036262e-01  -7.0564561216906885e-01  -6.9399448196308966e-01  -7.6136909273166165e-01  -6.3240046412327292e-02  -5.9947391302172026e-01  -1.0098266442868002e+00  -6.3240046412327236e-02  -5.5441621014733045e-01  -1.4749473701443525e+00  -7.0508138228003114e-01  -1.0195937390929484e-01  -7.1619554081315484e-01  -1.5757109572520365e+00  -1.7773083702366195e+00  -3.2827563854434244e-01  -6.3515628527473736e-02  -6.7777779791265313e-01  -1.0612876919153169e+00  -2.1923121023990473e+00  -1.8012659897264698e+00  -7.8409724745803633e-01  -6.7768398625408421e-01  -8.5132047947452272e-02  -7.0564561216907107e-01  -1.0108857094039656e+00  -1.5511363767753805e+00  -2.0598943442840767e+00  -2.2928358269893869e+00  -2.2212980348971256e+00  -1.8634349175453853e+00  -1.2855985814777462e+00  -7.2993475538933350e-01  -1.3286860662924551e+00  -4.9300535316297645e-01  -2.5562156390630114e-01  -7.5792448958776870e-01  -2.3502325374336902e-01  -6.9564313501735794e-02  -5.9497963913284868e-01  -1.0713511435134435e+00  -6.9564313501735725e-02  -5.8976024953199546e-01  -1.5057534888230919e+00  -7.7559244661788207e-01  -5.8171527248402119e-02  -7.8732193165382669e-01  -1.6717124126695000e+00  -8.0965926327867244e-01  -3.3818466864048846e-01  -6.7564750532077833e-02  -7.2098613984968019e-01  -1.0933227577109090e+00  -1.1538241208206315e+00  -1.9110095666254274e+00  -8.6196705270211127e-01  -6.2120297152350450e-02  -9.3645606042866189e-02  -7.2038390243869921e-01  -1.0753296842961750e+00  -1.7062564517175254e+00  -2.2212980348971256e+00  -2.4325286909700732e+00  -2.3566324014474289e+00  -2.0094449659459883e+00  -1.4141637748999503e+00  -7.7646810392880083e-01  -1.3564373348960170e+00  -3.6945547890069881e-02  -2.7799725067064113e-01  -8.1731190922165953e-01  -2.3326127736769653e-01  -7.5972501474631055e-02  -6.1293915381661956e-01  -1.1157212437799908e+00  -7.5972501474630957e-02  -6.4138457420917339e-01  -7.9248510899186986e-01  -8.4703916891121811e-01  -5.7735413565539025e-02  -8.6605739222991573e-01  -1.7409465268215860e+00  -8.0358922352082174e-01  -3.5974394491876127e-01  -7.3478992159872220e-02  -7.8409724745803688e-01  -1.1630220953230181e+00  -1.1451738668130540e+00  -1.9901541931046900e+00  -9.4816733516262230e-01  -6.1654579423194487e-02  -1.0227213617233272e-01  -7.1389931829140518e-01  -1.1694580505283274e+00  -1.8634349175453853e+00  -2.3566324014474289e+00  -2.5332720770886894e+00  -2.4542325361714226e+00  -2.1318720141455745e+00  -1.5444349849190333e+00  -8.4443579339329478e-01  -3.2380393685694142e-01  -3.8060752623459933e-02  -3.0560555032771869e-01  -8.6710729361889793e-01  -2.4030229030411537e-01  -8.1925351511399569e-02  -6.5201403149225756e-01  -1.1390244759793291e+00  -8.1925351511399500e-02  -7.0508138228003092e-01  -7.8654382438332249e-01  -9.1340919819716015e-01  -5.9478162290882160e-02  -9.4583764571558104e-01  -1.7773083702366199e+00  -8.2784563753958806e-01  -3.9123392449583921e-01  -8.0776294666123349e-02  -8.6196705270211182e-01  -1.2648265663827962e+00  -1.1797410444503842e+00  -2.0317210499992338e+00  -1.0355114661922429e+00  -6.3515628527473736e-02  -1.1028570263068031e-01  -7.0854719371052510e-01  -1.2855985814777489e+00  -2.0094449659459888e+00  -2.4542325361714226e+00  -2.5861826295816188e+00  -2.5054922490973972e+00  -2.2201636779906124e+00  -1.6654496899545372e+00  -3.2380393685694148e-01  -3.2137636903969569e-01  -4.0487126014266989e-02  -3.3616737363310811e-01  -9.0301861717762655e-01  -2.5562156390630109e-01  -8.6916719340939697e-02  -7.0908770521398279e-01  -4.7375905244624078e-01  -8.6916719340939599e-02  -7.7559244661788185e-01  -8.1028572147417011e-01  -9.6905938709446293e-01  -6.3269895779298355e-02  -1.0199490617514895e+00  -9.7786773743691779e-01  -8.8062080587358527e-01  -4.3008791818620307e-01  -8.8854259356891729e-02  -9.4816733516262286e-01  -1.3904382793572525e+00  -1.2549495487754652e+00  -9.0352677911181567e-01  -1.1166493035669289e+00  -6.7564750532077833e-02  -1.1700494762644220e-01  -7.2993475538933339e-01  -1.4141637748999532e+00  -2.1318720141455745e+00  -2.5054922490973972e+00  -1.3186522978978226e+00  -1.1928877531135120e+00  -2.2665345703592750e+00  -3.6945547890069874e-02  -3.2137636903969585e-01  -3.3107714405646338e-01  -4.4031143333618260e-02  -3.6713474198846041e-01  -9.2187928926192109e-01  -2.7799725067064102e-01  -9.0516382789610356e-02  -7.7950820686092426e-01  -4.7020726663408935e-01  -9.0516382789610259e-02  -8.4703916891121800e-01  -8.6194144496934733e-01  -1.0091930654220120e+00  -6.8808189763326061e-02  -1.0820902773907979e+00  -9.7053663370801679e-01  -9.5770544227621190e-01  -4.7309849488317135e-01  -9.7039415904683124e-02  -1.0355114661922438e+00  -1.5294878776554417e+00  -1.3648008366689326e+00  -8.9675301177506961e-01  -1.1846820590922662e+00  -7.3478992159872220e-02  -1.2185071765179734e-01  -7.7646810392880072e-01  -1.5444349849190366e+00  -2.2201636779906124e+00  -1.3611200228257696e+00  -1.3087663221077013e+00  -1.1839446378841125e+00  -1.7331738759145740e-01  -3.8060752623459933e-02  -3.3107714405646343e-01  -3.5218331556574234e-01  -4.8403938375532134e-02  -3.9590170398029101e-01  -4.8518938488338087e-01  -3.0560555032771858e-01  -9.2406930538655827e-02  -8.5746226253052005e-01  -4.8440051587172456e-01  -9.2406930538655729e-02  -9.1340919819715993e-01  -9.3739099424487815e-01  -1.0302713235161356e+00  -7.5641628285700563e-02  -1.1269051398156713e+00  -9.9983237053292850e-01  -1.0528165225829058e+00  -5.1667980737365582e-01  -1.0464297086633045e-01  -1.1166493035669300e+00  -1.6703826170542000e+00  -1.5003411356470231e+00  -9.2382158324108221e-01  -1.2337457690291607e+00  -8.0776294666123349e-02  -1.2439572213470540e-01  -8.4443579339329466e-01  -1.6654496899545412e+00  -2.2665345703592750e+00  -1.3509156652293381e+00  -1.3482715529316935e+00  -3.4869762583304975e-01  -1.8848862555861781e-01  -4.0487126014266989e-02  -3.5218331556574245e-01  -3.8301147979532318e-01  -5.3244533090947531e-02  -4.2002233321716853e-01  -4.8155190552644356e-01  -3.3616737363310800e-01  -2.6963824408389414e-01  -9.3645074213109136e-01  -5.1528105399014024e-01  -5.3661695719134789e-02  -9.6905938709446282e-01  -1.0304846180218259e+00  -3.0165188182718733e-01  -8.3206105029400054e-02  -1.1504419616572841e+00  -1.0635716949527323e+00  -1.1581025440627812e+00  -5.5716442155144308e-01  -1.1101842789805312e-01  -1.1846820590922671e+00  -1.8012659897264685e+00  -1.6503814756744895e+00  -9.8271521915010340e-01  -1.2595140909024931e+00  -8.8854259356891729e-02  -3.7914141967974790e-01  -9.2829790486714081e-01  -1.7669185497250108e+00  -1.3186522978978226e+00  -1.3916931778204960e+00  -5.7608426401451425e-02  -3.8081926722587001e-01  -2.0720769721784901e-01  -4.4031143333618260e-02  -3.8301147979532324e-01  -4.2104889088762881e-01  -5.8149360859675800e-02  -4.3741759447382605e-01  -4.9608759372395000e-01  -3.6713474198846030e-01  -2.6761675808841706e-01  -1.0098266442868002e+00  -5.6038588506733600e-01  -5.3259392378381537e-02  -1.0091930654220120e+00  -1.1335373563674891e+00  -2.9939038863027523e-01  -9.0870959818882824e-02  -8.0965926327867221e-01  -1.1566708323416410e+00  -1.2647856754079547e+00  -5.9111011135552327e-01  -1.1561626569110094e-01  -1.2337457690291618e+00  -1.9110095666254263e+00  -1.8024128002248625e+00  -1.0687366313745923e+00  -3.5666825393071355e-01  -9.7039415904683124e-02  -3.7629898509561871e-01  -1.0211315478192713e+00  -1.8400956342773434e+00  -1.3087663221077013e+00  -2.6520166264480307e-02  -5.8811650364924001e-02  -4.1065848463882659e-01  -2.2792932685807527e-01  -4.8403938375532120e-02  -4.2104889088762892e-01  -4.6315552734249299e-01  -6.2705672922760552e-02  -4.4655360745997791e-01  -5.2771318318166738e-01  -3.9590170398029084e-01  -2.7569479434444227e-01  -1.0713511435134435e+00  -6.1603859890250023e-01  -5.4867031995868794e-02  -1.0302713235161354e+00  -1.2379575696672342e+00  -3.0842751482273106e-01  -9.7991183399774931e-02  -8.0358922352082163e-01  -1.2715414465899919e+00  -1.3638883679377070e+00  -6.1559098774064802e-01  -1.1803105585525719e-01  -1.2595140909024942e+00  -1.9901541931046887e+00  -1.9436414407965235e+00  -1.1748743759109321e+00  -3.5399430134360227e-01  -1.0464297086633045e-01  -3.8765760428830653e-01  -1.1151970617888163e+00  -1.8785283306821177e+00  -2.8851005072832475e-01  -2.8841593784929013e-02  -1.5935125245136206e-01  -4.3567818258749780e-01  -2.4892592550927276e-01  -5.3244533090947517e-02  -4.6315552734249321e-01  -5.0582090460984797e-01  -6.6526066400264067e-02  -4.0071211716606620e-01  -5.7390625354647407e-01  -4.2002233321716842e-01  -2.9327034046144307e-01  -1.1157212437799913e+00  -6.7764501537225463e-01  -5.8364805878177065e-02  -7.0798087077687766e-01  -1.3349581372551300e+00  -3.2808977222374025e-01  -1.0396137493849714e-01  -8.2784563753958773e-01  -1.3987008681858695e+00  -1.4469843620008020e+00  -6.2844837466154191e-01  -3.5666825393071377e-01  -9.0352677911181678e-01  -2.0317210499992324e+00  -2.0620593563840184e+00  -1.2923666892675290e+00  -3.6467965162250843e-01  -1.1101842789805312e-01  -4.1237078074844247e-01  -1.2025786898965929e+00  -1.4079542355696084e-01  -3.0045871943160490e-01  -3.1705893204729420e-02  -1.5815659133685056e-01  -4.5372183219985474e-01  -2.6843059727943064e-01  -5.8149360859675793e-02  -5.0582090460984819e-01  -5.4545466593348280e-01  -6.9281249193870395e-02  -3.9770796641652656e-01  -6.3090169427388509e-01  -4.3741759447382589e-01  -3.1894159125561289e-01  -1.1390244759793295e+00  -7.4006892813454361e-01  -6.3473735635254588e-02  -7.0267311697435730e-01  -1.4162915337819779e+00  -3.5680892197650915e-01  -1.0826694427288167e-01  -8.8062080587358549e-01  -1.5275476522623508e+00  -1.5069113444983910e+00  -5.8171527248402112e-02  -3.5399430134360255e-01  -8.9675301177507050e-01  -1.1538241208206319e+00  -2.1474597229699746e+00  -1.4114180858507499e+00  -3.8792798335203449e-01  -1.1561626569110094e-01  -4.4846742017036384e-01  -2.4383137596239619e-02  -1.5477801595500948e-01  -3.0673417519106444e-01  -3.4876614105653451e-02  -1.6293056247406304e-01  -4.6319837956202664e-01  -2.8478494697713508e-01  -6.2705672922760552e-02  -5.4545466593348302e-01  -5.7868692947322620e-01  -7.0728274645815034e-02  -4.0971281766340278e-01  -6.9399448196308966e-01  -4.4655360745997780e-01  -3.5061613121328455e-01  -6.4192577953501340e-01  -7.9805726944943445e-01  -6.9777401982834372e-02  -7.2388336911102613e-01  -1.4749473701443536e+00  -3.9224412003865539e-01  -1.1052823467670701e-01  -9.5770544227621157e-01  -1.6472391448607884e+00  -1.5383850707184752e+00  -5.7735413565539011e-02  -3.6467965162250859e-01  -9.2382158324108310e-01  -1.1451738668130551e+00  -2.1923121023990464e+00  -1.5220102085421157e+00  -4.2188503654410786e-01  -1.1803105585525719e-01  -1.3864237961390288e-01  -2.4200336483051626e-02  -1.7025645988413041e-01  -1.1903066838505005e-01  -3.8089409399631027e-02  -1.7331738759145740e-01  -2.4378347520813684e-01  -2.9657934018638671e-01  -6.6526066400264053e-02  -5.7868692947322642e-01  -6.0265329870625184e-01  -4.3137486539773021e-02  -4.3583201421440071e-01  -7.5792448958776870e-01  -4.3137486539773000e-02  -3.8567919940255274e-01  -6.3711324273084213e-01  -8.4667954945645130e-01  -7.6755431759524276e-02  -7.7003094170989550e-01  -1.5057534888230932e+00  -4.3147015986791976e-01  -3.3075532109753525e-01  -1.0528165225829056e+00  -1.7475985125477644e+00  -6.0548298917466881e-01  -5.9478162290882125e-02  -3.8792798335203482e-01  -9.8271521915010462e-01  -1.1797410444503853e+00  -1.0693042982807173e+00  -1.6147399027209890e+00  -4.6378303546909116e-01  -1.2118506622813038e-01  -1.4438426575637511e-01  -2.4930825847449042e-02  -1.8594029752467559e-01  -1.1813829189747055e-01  -4.1073917448517613e-02  -1.8848862555861770e-01  -2.4195582318964690e-01  -3.0277377026327129e-01  -6.9281249193870395e-02  -6.0265329870625206e-01  -6.1524046582683978e-01  -4.2814083510590323e-02  -4.7398231923134132e-01  -8.1731190922165953e-01  -4.2814083510590295e-02  -4.2120754263770349e-01  -6.5634456408282293e-01  -8.8174485622395793e-01  -8.3826057629259779e-02  -8.3743515787714384e-01  -7.0798087077687766e-01  -4.7121671596754672e-01  -3.2827563854434294e-01  -1.1581025440627810e+00  -1.8199754560894694e+00  -6.0094366506181984e-01  -6.3269895779298327e-02  -4.2188503654410819e-01  -1.0687366313745936e+00  -1.2549495487754647e+00  -1.0612876919153178e+00  -1.6816144954461760e+00  -2.5145464415834155e-02  -1.3068056146587520e-01  -1.4739991154568774e-01  -2.6520166264480328e-02  -2.0050970994985576e-01  -1.2170430701546765e-01  -4.3576378852753270e-02  -2.0720769721784890e-01  -2.4925928178485449e-01  -3.0952846860655230e-02  -7.0728274645815034e-02  -6.1524046582684000e-01  -1.9814162814038075e-01  -4.4106430527038318e-02  -5.2105417289150224e-01  -8.6710729361889793e-01  -4.4106430527038290e-02  -4.5421139649284215e-01  -6.9818653713171652e-01  -9.0016119923051885e-01  -9.0394275610171299e-02  -9.2060202634893273e-01  -7.0267311697435730e-01  -5.0813905484709576e-01  -3.3818466864048885e-01  -1.2647856754079545e+00  -1.8579879174339025e+00  -6.1908320441232023e-01  -6.8808189763326019e-02  -4.6378303546909144e-01  -1.1748743759109330e+00  -1.3648008366689333e+00  -1.0933227577109099e+00  -1.5176869133034277e-02  -2.7461836913902329e-02  -1.3864237961390288e-01  -1.7579840661001659e-02  -2.8841593784929051e-02  -2.1272592504433566e-01  -1.2946295790212731e-01  -4.5381098351729994e-02  -2.2792932685807518e-01  -2.6514956369067416e-01  -3.0720792440253747e-02  -1.9814162814038075e-01  -3.6623834641274433e-01  -1.9665615441699363e-01  -4.6918215949492630e-02  -5.7316175257181012e-01  -9.0301861717762655e-01  -4.6918215949492616e-02  -4.8188459057061678e-01  -7.5930189461253095e-01  -2.6963824408389447e-01  -9.5901619441249156e-02  -1.0126660495111055e+00  -7.2388336911102613e-01  -5.3909783481575779e-01  -3.5974394491876160e-01  -1.3638883679377070e+00  -9.3540571411859397e-01  -6.5854976537979082e-01  -7.5641628285700521e-02  -5.1016326373014187e-01  -1.2923666892675303e+00  -1.5003411356470238e+00  -5.5310261255088672e-02  -1.6574945608583601e-02  -2.9613618067735253e-02  -1.4438426575637511e-01  -1.7448044068794674e-02  -3.1705893204729448e-02  -2.2153598762807231e-01  -1.4079542355696062e-01  -4.6328939291612560e-02  -2.4892592550927270e-01  -2.8835927844313786e-01  -3.1648102362542715e-02  -1.9665615441699363e-01  -3.6349264655553221e-01  -2.0259223837787238e-01  -5.1025175032226040e-02  -6.2596078219585094e-01  -9.2187928926192109e-01  -5.1025175032226019e-02  -5.0184188256584783e-01  -8.3470923834013311e-01  -2.6761675808841723e-01  -9.9873393304651142e-02  -1.1059517310965989e+00  -7.7003094170989550e-01  -5.6142461826960277e-01  -3.9123392449583960e-01  -1.4469843620008018e+00  -9.2839294945086481e-01  -7.1619554081315417e-01  -8.3206105029400040e-02  -5.5715894192032334e-01  -1.4114180858507515e+00  -1.8962649216357118e-02  -5.9644114746222908e-02  -1.7873680857000303e-02  -3.1417851529205530e-02  -1.4739991154568774e-01  -1.7974714870695220e-02  -3.4876614105653479e-02  -2.2616304352486286e-01  -1.5477801595500923e-01  -3.0952846860655230e-02  -2.6843059727943053e-01  -3.1699664571548108e-01  -3.3665669229958756e-02  -2.0259223837787238e-01  -3.7446470525113956e-01  -2.1550749576248621e-01  -5.6092557241748379e-02  -6.7500814266159148e-01  -4.0071211716606608e-01  -5.6092557241748352e-02  -5.1232347730286709e-01  -9.1818362624366168e-01  -2.7569479434444261e-01  -1.0195937390929494e-01  -1.1926089383141474e+00  -8.3743515787714384e-01  -5.7315067288664767e-01  -4.3008791818620346e-01  -1.5069113444983908e+00  -9.5641657532194968e-01  -7.8732193165382591e-01  -9.0870959818882796e-02  -6.0081531183732317e-01  -1.0610539407003688e-02  -1.9747988973675048e-02  -6.3277980333290573e-02  -1.8962649216357107e-02  -3.2719