<?xml version="1.0"?>
<VTKFile type="UnstructuredGrid"  version="0.1"  >
<UnstructuredGrid>
<Piece  NumberOfPoints="1089" NumberOfCells="2048">
<Points>
<DataArray  type="Float64"  NumberOfComponents="3"  format="ascii">0 0 0  0.03125 0 0  0.0625 0 0  0.09375 0 0  0.125 0 0  0.15625 0 0  0.1875 0 0  0.21875 0 0  0.25 0 0  0.28125 0 0  0.3125 0 0  0.34375 0 0  0.375 0 0  0.40625 0 0  0.4375 0 0  0.46875 0 0  0.5 0 0  0.53125 0 0  0.5625 0 0  0.59375 0 0  0.625 0 0  0.65625 0 0  0.6875 0 0  0.71875 0 0  0.75 0 0  0.78125 0 0  0.8125 0 0  0.84375 0 0  0.875 0 0  0.90625 0 0  0.9375 0 0  0.96875 0 0  1 0 0  0 0.03125 0  0.03125 0.03125 0  0.0625 0.03125 0  0.09375 0.03125 0  0.125 0.03125 0  0.15625 0.03125 0  0.1875 0.03125 0  0.21875 0.03125 0  0.25 0.03125 0  0.28125 0.03125 0  0.3125 0.03125 0  0.34375 0.03125 0  0.375 0.03125 0  0.40625 0.03125 0  0.4375 0.03125 0  0.46875 0.03125 0  0.5 0.03125 0  0.53125 0.03125 0  0.5625 0.03125 0  0.59375 0.03125 0  0.625 0.03125 0  0.65625 0.03125 0  0.6875 0.03125 0  0.71875 0.03125 0  0.75 0.03125 0  0.78125 0.03125 0  0.8125 0.03125 0  0.84375 0.03125 0  0.875 0.03125 0  0.90625 0.03125 0  0.9375 0.03125 0  0.96875 0.03125 0  1 0.03125 0  0 0.0625 0  0.03125 0.0625 0  0.0625 0.0625 0  0.09375 0.0625 0  0.125 0.0625 0  0.15625 0.0625 0  0.1875 0.0625 0  0.21875 0.0625 0  0.25 0.0625 0  0.28125 0.0625 0  0.3125 0.0625 0  0.34375 0.0625 0  0.375 0.0625 0  0.40625 0.0625 0  0.4375 0.0625 0  0.46875 0.0625 0  0.5 0.0625 0  0.53125 0.0625 0  0.5625 0.0625 0  0.59375 0.0625 0  0.625 0.0625 0  0.65625 0.0625 0  0.6875 0.0625 0  0.71875 0.0625 0  0.75 0.0625 0  0.78125 0.0625 0  0.8125 0.0625 0  0.84375 0.0625 0  0.875 0.0625 0  0.90625 0.0625 0  0.9375 0.0625 0  0.96875 0.0625 0  1 0.0625 0  0 0.09375 0  0.03125 0.09375 0  0.0625 0.09375 0  0.09375 0.09375 0  0.125 0.09375 0  0.15625 0.09375 0  0.1875 0.09375 0  0.21875 0.09375 0  0.25 0.09375 0  0.28125 0.09375 0  0.3125 0.09375 0  0.34375 0.09375 0  0.375 0.09375 0  0.40625 0.09375 0  0.4375 0.09375 0  0.46875 0.09375 0  0.5 0.09375 0  0.53125 0.09375 0  0.5625 0.09375 0  0.59375 0.09375 0  0.625 0.09375 0  0.65625 0.09375 0  0.6875 0.09375 0  0.71875 0.09375 0  0.75 0.09375 0  0.78125 0.09375 0  0.8125 0.09375 0  0.84375 0.09375 0  0.875 0.09375 0  0.90625 0.09375 0  0.9375 0.09375 0  0.96875 0.09375 0  1 0.09375 0  0 0.125 0  0.03125 0.125 0  0.0625 0.125 0  0.09375 0.125 0  0.125 0.125 0  0.15625 0.125 0  0.1875 0.125 0  0.21875 0.125 0  0.25 0.125 0  0.28125 0.125 0  0.3125 0.125 0  0.34375 0.125 0  0.375 0.125 0  0.40625 0.125 0  0.4375 0.125 0  0.46875 0.125 0  0.5 0.125 0  0.53125 0.125 0  0.5625 0.125 0  0.59375 0.125 0  0.625 0.125 0  0.65625 0.125 0  0.6875 0.125 0  0.71875 0.125 0  0.75 0.125 0  0.78125 0.125 0  0.8125 0.125 0  0.84375 0.125 0  0.875 0.125 0  0.90625 0.125 0  0.9375 0.125 0  0.96875 0.125 0  1 0.125 0  0 0.15625 0  0.03125 0.15625 0  0.0625 0.15625 0  0.09375 0.15625 0  0.125 0.15625 0  0.15625 0.15625 0  0.1875 0.15625 0  0.21875 0.15625 0  0.25 0.15625 0  0.28125 0.15625 0  0.3125 0.15625 0  0.34375 0.15625 0  0.375 0.15625 0  0.40625 0.15625 0  0.4375 0.15625 0  0.46875 0.15625 0  0.5 0.15625 0  0.53125 0.15625 0  0.5625 0.15625 0  0.59375 0.15625 0  0.625 0.15625 0  0.65625 0.15625 0  0.6875 0.15625 0  0.71875 0.15625 0  0.75 0.15625 0  0.78125 0.15625 0  0.8125 0.15625 0  0.84375 0.15625 0  0.875 0.15625 0  0.90625 0.15625 0  0.9375 0.15625 0  0.96875 0.15625 0  1 0.15625 0  0 0.1875 0  0.03125 0.1875 0  0.0625 0.1875 0  0.09375 0.1875 0  0.125 0.1875 0  0.15625 0.1875 0  0.1875 0.1875 0  0.21875 0.1875 0  0.25 0.1875 0  0.28125 0.1875 0  0.3125 0.1875 0  0.34375 0.1875 0  0.375 0.1875 0  0.40625 0.1875 0  0.4375 0.1875 0  0.46875 0.1875 0  0.5 0.1875 0  0.53125 0.1875 0  0.5625 0.1875 0  0.59375 0.1875 0  0.625 0.1875 0  0.65625 0.1875 0  0.6875 0.1875 0  0.71875 0.1875 0  0.75 0.1875 0  0.78125 0.1875 0  0.8125 0.1875 0  0.84375 0.1875 0  0.875 0.1875 0  0.90625 0.1875 0  0.9375 0.1875 0  0.96875 0.1875 0  1 0.1875 0  0 0.21875 0  0.03125 0.21875 0  0.0625 0.21875 0  0.09375 0.21875 0  0.125 0.21875 0  0.15625 0.21875 0  0.1875 0.21875 0  0.21875 0.21875 0  0.25 0.21875 0  0.28125 0.21875 0  0.3125 0.21875 0  0.34375 0.21875 0  0.375 0.21875 0  0.40625 0.21875 0  0.4375 0.21875 0  0.46875 0.21875 0  0.5 0.21875 0  0.53125 0.21875 0  0.5625 0.21875 0  0.59375 0.21875 0  0.625 0.21875 0  0.65625 0.21875 0  0.6875 0.21875 0  0.71875 0.21875 0  0.75 0.21875 0  0.78125 0.21875 0  0.8125 0.21875 0  0.84375 0.21875 0  0.875 0.21875 0  0.90625 0.21875 0  0.9375 0.21875 0  0.96875 0.21875 0  1 0.21875 0  0 0.25 0  0.03125 0.25 0  0.0625 0.25 0  0.09375 0.25 0  0.125 0.25 0  0.15625 0.25 0  0.1875 0.25 0  0.21875 0.25 0  0.25 0.25 0  0.28125 0.25 0  0.3125 0.25 0  0.34375 0.25 0  0.375 0.25 0  0.40625 0.25 0  0.4375 0.25 0  0.46875 0.25 0  0.5 0.25 0  0.53125 0.25 0  0.5625 0.25 0  0.59375 0.25 0  0.625 0.25 0  0.65625 0.25 0  0.6875 0.25 0  0.71875 0.25 0  0.75 0.25 0  0.78125 0.25 0  0.8125 0.25 0  0.84375 0.25 0  0.875 0.25 0  0.90625 0.25 0  0.9375 0.25 0  0.96875 0.25 0  1 0.25 0  0 0.28125 0  0.03125 0.28125 0  0.0625 0.28125 0  0.09375 0.28125 0  0.125 0.28125 0  0.15625 0.28125 0  0.1875 0.28125 0  0.21875 0.28125 0  0.25 0.28125 0  0.28125 0.28125 0  0.3125 0.28125 0  0.34375 0.28125 0  0.375 0.28125 0  0.40625 0.28125 0  0.4375 0.28125 0  0.46875 0.28125 0  0.5 0.28125 0  0.53125 0.28125 0  0.5625 0.28125 0  0.59375 0.28125 0  0.625 0.28125 0  0.65625 0.28125 0  0.6875 0.28125 0  0.71875 0.28125 0  0.75 0.28125 0  0.78125 0.28125 0  0.8125 0.28125 0  0.84375 0.28125 0  0.875 0.28125 0  0.90625 0.28125 0  0.9375 0.28125 0  0.96875 0.28125 0  1 0.28125 0  0 0.3125 0  0.03125 0.3125 0  0.0625 0.3125 0  0.09375 0.3125 0  0.125 0.3125 0  0.15625 0.3125 0  0.1875 0.3125 0  0.21875 0.3125 0  0.25 0.3125 0  0.28125 0.3125 0  0.3125 0.3125 0  0.34375 0.3125 0  0.375 0.3125 0  0.40625 0.3125 0  0.4375 0.3125 0  0.46875 0.3125 0  0.5 0.3125 0  0.53125 0.3125 0  0.5625 0.3125 0  0.59375 0.3125 0  0.625 0.3125 0  0.65625 0.3125 0  0.6875 0.3125 0  0.71875 0.3125 0  0.75 0.3125 0  0.78125 0.3125 0  0.8125 0.3125 0  0.84375 0.3125 0  0.875 0.3125 0  0.90625 0.3125 0  0.9375 0.3125 0  0.96875 0.3125 0  1 0.3125 0  0 0.34375 0  0.03125 0.34375 0  0.0625 0.34375 0  0.09375 0.34375 0  0.125 0.34375 0  0.15625 0.34375 0  0.1875 0.34375 0  0.21875 0.34375 0  0.25 0.34375 0  0.28125 0.34375 0  0.3125 0.34375 0  0.34375 0.34375 0  0.375 0.34375 0  0.40625 0.34375 0  0.4375 0.34375 0  0.46875 0.34375 0  0.5 0.34375 0  0.53125 0.34375 0  0.5625 0.34375 0  0.59375 0.34375 0  0.625 0.34375 0  0.65625 0.34375 0  0.6875 0.34375 0  0.71875 0.34375 0  0.75 0.34375 0  0.78125 0.34375 0  0.8125 0.34375 0  0.84375 0.34375 0  0.875 0.34375 0  0.90625 0.34375 0  0.9375 0.34375 0  0.96875 0.34375 0  1 0.34375 0  0 0.375 0  0.03125 0.375 0  0.0625 0.375 0  0.09375 0.375 0  0.125 0.375 0  0.15625 0.375 0  0.1875 0.375 0  0.21875 0.375 0  0.25 0.375 0  0.28125 0.375 0  0.3125 0.375 0  0.34375 0.375 0  0.375 0.375 0  0.40625 0.375 0  0.4375 0.375 0  0.46875 0.375 0  0.5 0.375 0  0.53125 0.375 0  0.5625 0.375 0  0.59375 0.375 0  0.625 0.375 0  0.65625 0.375 0  0.6875 0.375 0  0.71875 0.375 0  0.75 0.375 0  0.78125 0.375 0  0.8125 0.375 0  0.84375 0.375 0  0.875 0.375 0  0.90625 0.375 0  0.9375 0.375 0  0.96875 0.375 0  1 0.375 0  0 0.40625 0  0.03125 0.40625 0  0.0625 0.40625 0  0.09375 0.40625 0  0.125 0.40625 0  0.15625 0.40625 0  0.1875 0.40625 0  0.21875 0.40625 0  0.25 0.40625 0  0.28125 0.40625 0  0.3125 0.40625 0  0.34375 0.40625 0  0.375 0.40625 0  0.40625 0.40625 0  0.4375 0.40625 0  0.46875 0.40625 0  0.5 0.40625 0  0.53125 0.40625 0  0.5625 0.40625 0  0.59375 0.40625 0  0.625 0.40625 0  0.65625 0.40625 0  0.6875 0.40625 0  0.71875 0.40625 0  0.75 0.40625 0  0.78125 0.40625 0  0.8125 0.40625 0  0.84375 0.40625 0  0.875 0.40625 0  0.90625 0.40625 0  0.9375 0.40625 0  0.96875 0.40625 0  1 0.40625 0  0 0.4375 0  0.03125 0.4375 0  0.0625 0.4375 0  0.09375 0.4375 0  0.125 0.4375 0  0.15625 0.4375 0  0.1875 0.4375 0  0.21875 0.4375 0  0.25 0.4375 0  0.28125 0.4375 0  0.3125 0.4375 0  0.34375 0.4375 0  0.375 0.4375 0  0.40625 0.4375 0  0.4375 0.4375 0  0.46875 0.4375 0  0.5 0.4375 0  0.53125 0.4375 0  0.5625 0.4375 0  0.59375 0.4375 0  0.625 0.4375 0  0.65625 0.4375 0  0.6875 0.4375 0  0.71875 0.4375 0  0.75 0.4375 0  0.78125 0.4375 0  0.8125 0.4375 0  0.84375 0.4375 0  0.875 0.4375 0  0.90625 0.4375 0  0.9375 0.4375 0  0.96875 0.4375 0  1 0.4375 0  0 0.46875 0  0.03125 0.46875 0  0.0625 0.46875 0  0.09375 0.46875 0  0.125 0.46875 0  0.15625 0.46875 0  0.1875 0.46875 0  0.21875 0.46875 0  0.25 0.46875 0  0.28125 0.46875 0  0.3125 0.46875 0  0.34375 0.46875 0  0.375 0.46875 0  0.40625 0.46875 0  0.4375 0.46875 0  0.46875 0.46875 0  0.5 0.46875 0  0.53125 0.46875 0  0.5625 0.46875 0  0.59375 0.46875 0  0.625 0.46875 0  0.65625 0.46875 0  0.6875 0.46875 0  0.71875 0.46875 0  0.75 0.46875 0  0.78125 0.46875 0  0.8125 0.46875 0  0.84375 0.46875 0  0.875 0.46875 0  0.90625 0.46875 0  0.9375 0.46875 0  0.96875 0.46875 0  1 0.46875 0  0 0.5 0  0.03125 0.5 0  0.0625 0.5 0  0.09375 0.5 0  0.125 0.5 0  0.15625 0.5 0  0.1875 0.5 0  0.21875 0.5 0  0.25 0.5 0  0.28125 0.5 0  0.3125 0.5 0  0.34375 0.5 0  0.375 0.5 0  0.40625 0.5 0  0.4375 0.5 0  0.46875 0.5 0  0.5 0.5 0  0.53125 0.5 0  0.5625 0.5 0  0.59375 0.5 0  0.625 0.5 0  0.65625 0.5 0  0.6875 0.5 0  0.71875 0.5 0  0.75 0.5 0  0.78125 0.5 0  0.8125 0.5 0  0.84375 0.5 0  0.875 0.5 0  0.90625 0.5 0  0.9375 0.5 0  0.96875 0.5 0  1 0.5 0  0 0.53125 0  0.03125 0.53125 0  0.0625 0.53125 0  0.09375 0.53125 0  0.125 0.53125 0  0.15625 0.53125 0  0.1875 0.53125 0  0.21875 0.53125 0  0.25 0.53125 0  0.28125 0.53125 0  0.3125 0.53125 0  0.34375 0.53125 0  0.375 0.53125 0  0.40625 0.53125 0  0.4375 0.53125 0  0.46875 0.53125 0  0.5 0.53125 0  0.53125 0.53125 0  0.5625 0.53125 0  0.59375 0.53125 0  0.625 0.53125 0  0.65625 0.53125 0  0.6875 0.53125 0  0.71875 0.53125 0  0.75 0.53125 0  0.78125 0.531
[...]
<PointData  Scalars="theta_dt"> 
<DataArray  type="Float64"  Name="theta_dt"  format="ascii">1.0973494240872799e-03  -5.8296465193571640e-04  -1.5106767985938181e-03  -2.1519400600827064e-04  1.6379659867434989e-03  2.7166769022964436e-03  -3.1743030715899292e-15  -1.8424376153538052e-03  -1.3975985749954643e-03  -4.2105269336355027e-04  3.1238900100141556e-03  2.6957768246050813e-03  2.2255696688820810e-03  1.0975249347271818e-03  -1.2925465881108219e-03  -3.6569253030895401e-03  -4.6144293038883569e-03  -3.2963660289758597e-03  -5.9015590023403541e-04  5.9975155014627547e-04  2.8229735406077043e-03  6.0873729577574963e-03  5.4542846137675856e-03  3.5946052029305091e-03  6.1529765494255685e-03  2.0021081631993900e-03  3.3725940762823450e-03  -5.5483493249509104e-15  -4.9317440839056835e-15  -7.6381892692303105e-15  -3.1961295712249578e-03  -2.4498384901164849e-03  -2.0903308191133722e-03  1.9637008692136837e-04  1.0051277979317736e-03  -5.3742238210522427e-04  -1.6027159956704955e-03  -2.3403088971409746e-04  1.5003107571792838e-03  2.8821926241483090e-03  -3.1505052263457569e-15  -1.9187423285405712e-03  -1.3386127642098058e-03  -4.5983960391791240e-04  2.8798459821568162e-03  2.5820012494568068e-03  2.4203836314528400e-03  1.1986277233933253e-03  -1.3712960269482060e-03  -3.8083771807934648e-03  -4.8055362925970057e-03  -3.4971997763797932e-03  -6.4452041203100067e-04  6.5225045758359726e-04  2.7038296132323157e-03  5.6118161965019227e-03  5.9567273074889980e-03  3.4428944712922155e-03  6.4078026053724646e-03  1.9870982983076777e-03  3.5780720786820152e-03  -5.0820641235426485e-15  -5.3634414694353696e-15  -8.1035520841712954e-15  -2.9464420561026955e-03  -2.2439532138155398e-03  -7.0011372413255680e-04  2.0229753590879528e-04  9.3631614074154166e-04  -4.9077066968709340e-04  -1.6690926172452753e-03  -2.5727282795863862e-04  1.3975985749928280e-03  3.0015588809495833e-03  -3.2456035140053421e-15  -1.9588176594190938e-03  -1.3285771442056369e-03  -4.9587048548634994e-04  2.6298568655111604e-03  2.5626439087212036e-03  2.6607553488746227e-03  1.2925465880980285e-03  -1.4280883705035349e-03  -3.8879198965402948e-03  -4.9059059222809750e-03  -3.6420366075808528e-03  -6.9502201832256124e-04  7.1702637188128385e-04  2.6835589216029593e-03  5.1246745290539171e-03  6.4234686110282366e-03  3.4170829882762608e-03  6.5416375689289754e-03  2.0470790417135617e-03  3.7262582432773237e-03  -4.7341429387862644e-15  -5.8960924180478141e-15  -8.4391613945890967e-15  -2.6906719727661302e-03  -6.5905992338401902e-04  -7.6460742960890275e-04  2.1519400600782267e-04  8.9679880886853322e-04  -4.4684334938965392e-04  -1.7039537019819014e-03  -2.8300117844480641e-04  1.3386127642072813e-03  3.0642501884358343e-03  -3.4525107730761568e-15  -2.5745320031078035e-03  -1.3686803665018815e-03  -5.2608179301465033e-04  2.3944667495097607e-03  2.6399975488811118e-03  2.9268419259802225e-03  1.3712960269346337e-03  -1.4579157804274253e-03  -4.1218604958493856e-03  -3.1238900100184386e-03  -3.7181050926241316e-03  -7.3736679291403233e-04  7.8873198475134100e-04  2.7645623924570793e-03  4.6659812261281141e-03  6.8148235944082676e-03  3.5202279499980658e-03  3.1961295712111997e-03  2.1775803527315399e-03  3.8040858024117204e-03  -4.5343378841621830e-15  -6.4857261288210297e-15  -8.6154238245124808e-15  4.0975086367737372e-04  -6.0757295111982723e-04  -8.2451849317945972e-04  2.3403088971361027e-04  8.9007548132630113e-04  -4.0929047934394207e-04  -1.3586484391828490e-03  -3.0907093543277610e-04  1.3285771442031321e-03  1.6457659924166707e-03  -3.7547243204323498e-15  -2.3734048322176845e-03  -1.4559337546483156e-03  -5.4786951597158413e-04  2.1932349334920459e-03  2.8082974211346263e-03  3.1964593818926421e-03  1.4280883704894005e-03  -3.2665655816582211e-03  -3.7998531798272089e-03  -2.8798459821607605e-03  -6.5865632660195043e-04  -7.6790490241520314e-04  8.6138910683154660e-04  2.9408032748338780e-03  4.2738505457457013e-03  7.0970601029642817e-03  3.7446425198293955e-03  2.9464420560900107e-03  2.3681935980787217e-03  -7.2385356914359014e-15  -4.5003438171753654e-15  -7.0831840793428324e-15  2.1981849248756575e-04  4.2211923087667302e-04  -5.5483171902293309e-04  -8.7475294449144666e-04  2.5727282795810302e-04  9.1694249092656548e-04  -3.8127020549041430e-04  -1.2525083265420812e-03  -3.3328828899680831e-04  1.3686803664992996e-03  1.5171957289270880e-03  -4.1276112965378329e-15  -2.1673780581732385e-03  -1.5833780795550412e-03  -5.5931245534089353e-04  2.0430847429474784e-03  3.0541201227727590e-03  3.4469189953013524e-03  1.4579157804129955e-03  -3.0113754759718767e-03  -3.4700015330051950e-03  -2.6298568655147622e-03  -6.0720088406000024e-04  -7.8394355575065985e-04  9.2888353016557987e-04  3.1982248002625697e-03  3.9812601515278843e-03  7.2452910705415640e-03  4.0724276518335351e-03  2.6906719727545474e-03  2.6033822495635933e-03  -6.6730479821169913e-15  -4.6361871058370980e-15  -6.8646175821318245e-05  2.2892229436537856e-04  4.4902933640400750e-04  -5.0517049813489855e-04  -9.1098091334231132e-04  2.8300117844421726e-04  9.7539758462624111e-04  -3.6517865202032057e-04  -1.1437825640938121e-03  -3.5359414564521880e-04  1.4559337546455691e-03  1.3854934009543320e-03  -4.5403895559079376e-15  -1.9733829479362712e-03  -1.7406255932816952e-03  6.5865632660121621e-04  1.9568561131945066e-03  3.3574291063501504e-03  3.6569253030775701e-03  -1.2249165713363753e-03  -2.7499687549906414e-03  -3.1594127423789941e-03  -2.3944667495130407e-03  -5.5449194977215367e-04  8.8028148417014474e-04  9.8547650516444792e-04  3.5158450229206620e-03  3.8132306027089278e-03  5.4961749981939957e-03  4.4768661945614047e-03  2.4498384901059395e-03  2.8637312786379300e-03  -6.0937845837549260e-15  -2.3835446774027512e-04  -6.8131533384236208e-05  2.3370362250709997e-04  4.8833486143810975e-04  -4.6271579428107677e-04  -9.3000788793038975e-04  3.0907093543213268e-04  1.0607784519160238e-03  -3.6244089672372122e-04  -1.0414062279618878e-03  -3.6823827776840979e-04  1.5833780795520549e-03  1.2614822972905491e-03  -4.9586452430527879e-15  -1.8075391606325163e-03  -1.9146953762606618e-03  6.0720088405932218e-04  1.9421855042776350e-03  3.6931859504212429e-03  3.8083771807809991e-03  -1.1292238379495248e-03  -2.5038278061327054e-03  -2.8938945998411595e-03  -2.1932349334950487e-03  -5.0486114054811612e-04  8.1151227707371815e-04  1.0262900998567325e-03  3.8674441160798279e-03  3.7846426986187973e-03  5.0668037078898300e-03  4.9245713931526467e-03  2.2439532138058805e-03  3.1275350511988926e-03  1.3929147472883867e-04  -2.4333279860783421e-04  -7.0188089934684469e-05  7.8137714721821644e-04  5.3683208633891941e-04  -4.3103799104243139e-04  -1.9635389357485546e-04  3.3328828899611431e-04  1.1661258584087799e-03  -3.7338120825471029e-04  -9.5388608740957668e-04  -3.7592939428999659e-04  1.7406255932784123e-03  1.1554668875505927e-03  -5.3471815021528740e-15  -1.6837939360597805e-03  -2.0910750063364405e-03  5.5449194977153491e-04  2.0008105508985872e-03  4.0333981741581234e-03  3.8879198965275689e-03  -1.0311999604597987e-03  -2.2934052489905388e-03  -2.6957768246103015e-03  -2.0430847429502778e-03  -4.6243243521317152e-04  7.4106780242135255e-04  1.0477254508766862e-03  4.2237088101875148e-03  3.8988824837276333e-03  4.6269726228247562e-03  5.3782174881791892e-03  2.0903308191043738e-03  2.9689467880043607e-04  1.5148427395847612e-04  -3.8733731480183897e-04  -7.4662581426061781e-05  7.2033452866521977e-04  5.9051752284280425e-04  -4.1284598238133102e-04  -1.8101436660051680e-04  3.5359414564448274e-04  1.2827432837085387e-03  -3.9718426431351744e-04  -8.8858246872504441e-04  4.6992501507872397e-04  1.9146953762570504e-03  1.0763629253236985e-03  -5.6729628291312986e-15  -1.6127292166965815e-03  -2.2549218678553063e-03  5.0486114054755320e-04  2.1283622451274066e-03  4.3494363985590537e-03  1.2249165713242522e-03  -9.3890053477752337e-04  -2.1363973380397671e-03  -2.5820012494618058e-03  -1.9568561131971859e-03  -4.3077403090775875e-04  6.7473718258248257e-04  4.3163451112244976e-03  4.5546588863071003e-03  4.1474362841737488e-03  4.2128270331139965e-03  5.7996294668666033e-03  -6.0685158454477220e-05  2.7194354703247961e-04  1.6652839118874100e-04  -3.5707781202143894e-04  -8.1198127604078946e-05  6.5780486783401158e-04  6.4491534691636047e-04  -4.0975086368068677e-04  -1.6530115766954975e-04  3.6823827776764315e-04  1.4009081827665608e-03  -4.3195156074263128e-04  -8.5107974204414556e-04  4.3321360939443330e-04  2.0910750063324970e-03  1.0309349025811553e-03  -5.9079090753372660e-15  -1.6006385374343519e-03  -2.3923047934296116e-03  4.6243243521265582e-04  2.3146672116969511e-03  4.6144293038794231e-03  1.1292238379383480e-03  -8.5999500822887983e-04  -2.0462304393328145e-03  -2.5626439087261645e-03  -1.9421855042802967e-03  -4.1259316271491408e-04  6.1803203576282014e-04  3.9791442996758184e-03  4.8321551364938183e-03  4.5104797369700349e-03  3.8587795882640647e-03  -1.3411964231686233e-04  -6.1952643811058968e-05  2.5332612726556040e-04  1.8318192140566073e-04  -3.2608116589727734e-04  -8.9262028355180034e-05  5.9892684820626407e-04  6.9544789845917920e-04  -4.2211923088008587e-04  -1.5050557727531487e-04  3.7592939428921396e-04  1.5106767985870622e-03  -4.7484928040552709e-04  -8.4469917171584551e-04  3.9560788735151954e-04  2.2549218678510536e-03  1.0232059527250348e-03  -6.0313031379337022e-15  -1.6489539577037890e-03  -2.4913823033527456e-03  4.3077403090727791e-04  2.5445400821400193e-03  4.8055362925877023e-03  1.0311999604495920e-03  -8.0111922963303816e-04  -2.0308897884148249e-03  -2.6399975488862236e-03  -2.0008105509013293e-03  -4.0949993941088466e-04  5.7572118865959485e-04  3.6337290328022210e-03  5.0322792593902738e-03  4.9584218510558284e-03  -9.4020583054056408e-16  -1.4647459610796795e-04  1.0958552416141915e-04  2.4263446853229500e-04  2.0005643833127243e-04  -2.9689467880247036e-04  -9.8188601630914916e-05  5.4859282817821826e-04  7.3781862013996944e-04  -4.4902933640763817e-04  -1.3785703636652710e-04  1.3586484391791783e-03  1.6027159956633285e-03  -5.2233617908548449e-04  -8.7019649327110078e-04  3.6019828475451966e-04  2.3923047934250995e-03  1.0540915177491923e-03  -1.6457659924260766e-03  -1.7540747903163380e-03  -2.5434179355825824e-03  4.1259316271445362e-04  2.7990046502751583e-03  4.9059059222714774e-03  9.3890053476822981e-04  -7.6730789915422704e-04  -2.0921923819444371e-03  -2.8082974211400620e-03  -2.1283622451303231e-03  -4.2186073243830925e-04  5.5142280877631586e-04  3.3084855148882890e-03  5.1373846992366894e-03  9.3063519961490544e-05  -1.0225062078510374e-15  -1.5795166067610162e-04  1.0102450164606835e-04  2.4081543065128307e-04  2.1573192555573566e-04  -2.7194354703434298e-04  -1.0723362751233801e-04  5.1103583123982303e-04  7.6837544210477972e-04  -4.8833486144205841e-04  -1.2841926024767492e-04  1.2525083265386983e-03  1.6690926172378113e-03  -5.7045321283641945e-04  -9.2567152911537693e-04  3.2992709598881275e-04  2.4913823033480467e-03  1.1212898633900393e-03  -1.5171957289357584e-03  -1.9076167195243552e-03  -4.6992501507942962e-04  4.0949993941042761e-04  3.0568458770921735e-03  3.2665655816475287e-03  8.5999500822036710e-04  -7.6155536884225559e-04  -2.2255696688893651e-03  -3.0541201227786731e-03  -2.3146672117001226e-03  -4.4875435868740643e-04  5.4728877545580053e-04  3.0304392448510893e-03  3.2605966412821259e-05  9.5872650801173958e-05  -1.1240527437231449e-15  -1.6757499244308741e-04  9.2254926438732493e-05  2.4808446639368868e-04  2.2887556635993542e-04  -2.5332612726729626e-04  -1.1563595323663715e-04  4.8946750440727598e-04  7.8442392324956254e-04  -5.3683208634325991e-04  -1.2299931039817824e-04  1.1437825640907226e-03  1.7039537019742812e-03  -6.1515125967040397e-04  -1.0066996546992796e-03  3.0734008737790159e-04  2.5434179355777850e-03  1.2194413274990749e-03  -1.3854934009622476e-03  -2.0970648305989356e-03  -4.3321360939508377e-04  4.2186073243783860e-04  3.2963660289713420e-03  3.0113754759620204e-03  8.0111922962510884e-04  -7.8454298712304362e-04  -2.4203836314607629e-03  -3.3574291063566495e-03  -2.5445400821435065e-03  -4.8803581370503678e-04  5.6380873706891855e-04  -1.1790275204038444e-05  3.2361518505602255e-05  1.0198453332518683e-04  -1.2364626829495958e-15  -1.7451512524817496e-04  8.3997481662591501e-05  2.6389985380563335e-04  2.3835446773549151e-04  -2.4263446853395722e-04  -1.2268116654699129e-04  4.8579795186007643e-04  -3.0316325739394939e-15  -5.9051752284757907e-04  -1.2207718088250800e-04  1.0414062279590760e-03  5.8296465192786938e-04  -6.5262984415218896e-04  -1.1066764194498865e-03  2.9436876316130426e-04  2.5745320031005121e-03  1.3405457682897711e-03  -1.2614822972977573e-03  -2.3067800165436398e-03  -3.9560788735211379e-04  4.4875435868690596e-04  3.4971997763750015e-03  2.7499687549816395e-03  7.6730789914663242e-04  -8.3455761102531171e-04  -2.6607553488833323e-03  -3.6931859504283934e-03  -2.7990046502789924e-03  -5.3650333975304625e-04  -2.1132339401163573e-05  -1.1701883157543850e-05  3.3338353893847724e-05  1.1091169086862570e-04  -1.3503642640183667e-15  -1.7816009168457344e-04  7.6938304173766999e-05  2.8700017592115897e-04  2.4333279860295066e-04  -2.4081543065293298e-04  -1.2776201766986006e-04  5.0046180735350589e-04  -2.7947958665151000e-15  -6.4491534692157526e-04  -1.2576209172384043e-04  9.5388608740700008e-04  5.3742238209798961e-04  -6.7965856559174442e-04  -1.2173486541367207e-03  2.9216187172326560e-04  2.3734048322109607e-03  1.4746059084257254e-03  -1.1554668875571963e-03  -2.5192780520163984e-03  -3.6019828475506067e-04  4.8803581370449224e-04  3.6420366075758624e-03  2.5038278061245110e-03  7.6155536883471854e-04  -9.0761013212616514e-04  -2.9268419259898025e-03  -4.0333981741659322e-03  -3.0568458770963624e-03  2.3158072816330386e-05  -2.1770220993768597e-05  -1.2055105568149322e-05  3.5463674314639414e-05  1.2192648756027355e-04  -1.4561724946634632e-15  -5.2051580112547999e-05  7.1671061319179740e-05  3.1550256880220521e-04  -2.0444416705401764e-04  -2.4808446639538849e-04  -1.3043048703944015e-04  5.3236625297734918e-04  -2.5521896458338862e-15  -6.9544789846480253e-04  -1.3377942642948341e-04  8.8858246872264399e-04  4.9077066968048703e-04  -6.9385408392443710e-04  -1.3294894719148543e-03  3.0098080447346734e-04  2.1673780581670972e-03  1.6104449812413895e-03  -1.0763629253298496e-03  -2.7166769023041419e-03  -3.2992709598930829e-04  5.3650333975244777e-04  3.7181050926190372e-03  2.2934052489830322e-03  7.8454298711527846e-04  -9.9774617641829435e-04  -3.1964593819031042e-03  -4.3494363985674741e-03  1.6864313579870390e-05  2.5185201418023489e-05  -2.3158072817242779e-05  -1.2823618678315664e-05  3.8567966674996776e-05  1.3411964231504784e-04  -1.5448909732544638e-15  -4.7985215027258778e-05  6.8646175821000018e-05  3.4705413502798035e-04  -1.8847261304927995e-04  -2.6389985380744158e-04  1.9635389357426446e-04  5.7896662713394025e-04  -2.3237512754157164e-15  -7.3781862014593504e-04  -1.4548973167742576e-04  8.5107974204184640e-04  4.4684334938363898e-04  -1.4316335376627022e-03  -1.4336620514423892e-03  3.2016833400928569e-04  1.9733829479306781e-03  1.7366319209856046e-03  -1.0309349025870462e-03  -2.8821926241564761e-03  -3.0734008737836325e-04  5.9015590023337708e-04  4.1218604958414050e-03  2.1363973380327753e-03  8.3455761101705150e-04  -1.0975249347380442e-03  -3.4469189953126355e-03  -4.4210590066472336e-06  1.8417835580069000e-05  2.7686379346924775e-05  -2.5185201419015754e-05  -1.3946126773276340e-05  4.2398205925776366e-05  1.4647459610598619e-04  -1.6088727665247714e-15  -4.3819790351411306e-05  6.8131533383920353e-05  3.7902437985723995e-04  -1.7211198045294886e-04  -2.8700017592312528e-04  1.8101436659997199e-04  6.3646462071049830e-04  -2.1284624123646329e-15  -7.6837544211099252e-04  -1.5993852244599715e-04  8.4469917171356380e-04  4.0929047933843215e-04  -1.3197916950155992e-03  -1.5210090632035321e-03  3.4819408521812490e-04  1.8075391606273941e-03  1.8424376153432761e-03  -1.0232059527308826e-03  -3.0015588809580883e-03  -2.9436876316174624e-04  6.4452041203028163e-04  3.7998531798198523e-03  2.0462304393261163e-03  9.0761013211718220e-04  -1.1986277234051887e-03  -2.9066371180940825e-06  -4.5133983478341359e-06  1.9860971070962654e-05  3.0455132180959770e-05  -2.7686379348015574e-05  -1.5331136323131101e-05  4.6638202472238163e-05  1.5795166067396465e-04  -1.6424760844382122e-15  -3.9897620415379134e-05  7.0188089934359059e-05  4.0872295828726262e-04  -1.5670678499331848e-04  -3.1550256880436700e-04  1.6530115766905215e-04  7.0011372412968312e-04  -1.9827465878064969e-15  -7.8442392325590513e-04  -1.7593303844048056e-04  8.7019649326875012e-04  3.8127020548528191e-04  -1.2052253042997576e-03  -1.5840017851036056e-03  3.8277373167266179e-04  1.6837939360550100e-03  1.9187423285296058e-03  -1.0540915177552157e-03  -3.0642501884445166e-03  -2.9216187172370433e-04  6.9502201832178582e-04  3.4700015329984760e-03  2.0308897884081779e-03  9.9774617640841900e-04  -2.0993399315117015e-16  -2.6623623266824558e-06  1.8821783919767416e-05  2.1071016682463454e-05  3.3260625427868488e-05  -3.0455132182159667e-05  -1.6864313580140725e-05  5.0934462337615699e-05  1.6757499244082026e-04  -1.4968714351336660e-04  -3.6544610559378407e-05  7.4662581425715690e-05  4.3362473273867444e-04  -1.4353709243736235e-04  -3.4705413503035822e-04  1.5050557727486183e-04  7.6460742960576442e-04  -1.8990645369252976e-15  -7.8137714722142319e-04  -1.9213979624800319e-04  9.2567152911287665e-04  3.6517865201540431e-04  -1.0973494240921870e-03  -1.6170856414953500e-03  4.2105269336291786e-04  1.6127292166920112e-03  1.9588176594078997e-03  -1.1212898633964467e-03  -2.1369374136384458e-03  -3.0098080447391945e-04  7.3736679291320974e-04  3.1594127423728775e-03  2.0921923819375897e-03  4.4210590064323981e-06  -2.2831044465296734e-16  -2.4800953909586280e-06  1.7351391574161209e-05  2.1943674660736538e-05  3.5866772539759328e-05  -3.3260625429178916e-05  -1.8417835580364232e-05  5.4925448682859448e-05  1.7451512524581389e-04  -1.3799330880588409e-04  -3.4042744409484918e-05  8.1198127603702484e-05  4.5158333854794557e-04  -1.3371045624323248e-04  -3.7902437985983678e-04  1.3785703636611226e-04  8.2451849317607549e-04  -1.8848271931874118e-15  -7.2033452866817607e-04  -2.0719497240988797e-04  1.0066996546965602e-03  3.6244089671884231e-04  -1.0051277979362689e-03  -3.1584961964213073e-04  4.5983960391722176e-04  1.6006385374298156e-03  -5.0674005039180932e-15  -1.2194413275060439e-03  -1.9699959361755399e-03  -3.2016833400976669e-04  7.6790490241434651e-04  2.8938945998355568e-03  2.3754226757454851e-06  4.5133983476148145e-06  -2.5098427741790912e-16  -2.3754226758609170e-06  1.5845179408971439e-05  2.2401995723256985e-05  3.8051984458923037e-05  -3.5866772541172437e-05  -1.9860971071281023e-05  5.8271825750775149e-05  1.7816009168216307e-04  -1.2601460383862795e-04  -3.2605966413078506e-05  8.9262028354766248e-05  4.6101522079828504e-04  -1.2806719084991090e-04  -4.0872295829006301e-04  1.2841926024728843e-04  8.7475294448785654e-04  -1.9417208739556394e-15  -6.5780486783671146e-04  -2.1981849248822738e-04  1.1066764194468969e-03  3.7338120824968388e-04  -9.3631614074572841e-04  -2.9117486696915679e-04  4.9587048548560520e-04  1.6489539576991165e-03  -4.6715258649973419e-15  -1.3405457682974318e-03  -1.7989876437420587e-03  -3.4819408521864786e-04  7.8394355574978522e-04  -3.4664752164580645e-17  2.3576140607670242e-06  -3.0812926956804927e-16  -2.7608374675232208e-16  -2.3576140608815892e-06  1.4426927842487112e-05  3.3990112579630139e-05  3.9627910686291025e-05  -3.8051984460422232e-05  -2.1071016682801220e-05  6.0685158453998450e-05  -1.3799810667130653e-15  -1.1473543781082994e-04  -3.2361518505857598e-05  9.8188601630459755e-05  2.0444416704991451e-04  -1.2710706728263739e-04  -4.3362473274164538e-04  1.2299931039780798e-04  9.1098091333857224e-04  -2.0655056006411