<?xml version="1.0"?>
<VTKFile type="UnstructuredGrid"  version="0.1"  >
<UnstructuredGrid>
<Piece  NumberOfPoints="1089" NumberOfCells="2048">
<Points>
<DataArray  type="Float64"  NumberOfComponents="3"  format="ascii">0 0 0  0.03125 0 0  0.0625 0 0  0.09375 0 0  0.125 0 0  0.15625 0 0  0.1875 0 0  0.21875 0 0  0.25 0 0  0.28125 0 0  0.3125 0 0  0.34375 0 0  0.375 0 0  0.40625 0 0  0.4375 0 0  0.46875 0 0  0.5 0 0  0.53125 0 0  0.5625 0 0  0.59375 0 0  0.625 0 0  0.65625 0 0  0.6875 0 0  0.71875 0 0  0.75 0 0  0.78125 0 0  0.8125 0 0  0.84375 0 0  0.875 0 0  0.90625 0 0  0.9375 0 0  0.96875 0 0  1 0 0  0 0.03125 0  0.03125 0.03125 0  0.0625 0.03125 0  0.09375 0.03125 0  0.125 0.03125 0  0.15625 0.03125 0  0.1875 0.03125 0  0.21875 0.03125 0  0.25 0.03125 0  0.28125 0.03125 0  0.3125 0.03125 0  0.34375 0.03125 0  0.375 0.03125 0  0.40625 0.03125 0  0.4375 0.03125 0  0.46875 0.03125 0  0.5 0.03125 0  0.53125 0.03125 0  0.5625 0.03125 0  0.59375 0.03125 0  0.625 0.03125 0  0.65625 0.03125 0  0.6875 0.03125 0  0.71875 0.03125 0  0.75 0.03125 0  0.78125 0.03125 0  0.8125 0.03125 0  0.84375 0.03125 0  0.875 0.03125 0  0.90625 0.03125 0  0.9375 0.03125 0  0.96875 0.03125 0  1 0.03125 0  0 0.0625 0  0.03125 0.0625 0  0.0625 0.0625 0  0.09375 0.0625 0  0.125 0.0625 0  0.15625 0.0625 0  0.1875 0.0625 0  0.21875 0.0625 0  0.25 0.0625 0  0.28125 0.0625 0  0.3125 0.0625 0  0.34375 0.0625 0  0.375 0.0625 0  0.40625 0.0625 0  0.4375 0.0625 0  0.46875 0.0625 0  0.5 0.0625 0  0.53125 0.0625 0  0.5625 0.0625 0  0.59375 0.0625 0  0.625 0.0625 0  0.65625 0.0625 0  0.6875 0.0625 0  0.71875 0.0625 0  0.75 0.0625 0  0.78125 0.0625 0  0.8125 0.0625 0  0.84375 0.0625 0  0.875 0.0625 0  0.90625 0.0625 0  0.9375 0.0625 0  0.96875 0.0625 0  1 0.0625 0  0 0.09375 0  0.03125 0.09375 0  0.0625 0.09375 0  0.09375 0.09375 0  0.125 0.09375 0  0.15625 0.09375 0  0.1875 0.09375 0  0.21875 0.09375 0  0.25 0.09375 0  0.28125 0.09375 0  0.3125 0.09375 0  0.34375 0.09375 0  0.375 0.09375 0  0.40625 0.09375 0  0.4375 0.09375 0  0.46875 0.09375 0  0.5 0.09375 0  0.53125 0.09375 0  0.5625 0.09375 0  0.59375 0.09375 0  0.625 0.09375 0  0.65625 0.09375 0  0.6875 0.09375 0  0.71875 0.09375 0  0.75 0.09375 0  0.78125 0.09375 0  0.8125 0.09375 0  0.84375 0.09375 0  0.875 0.09375 0  0.90625 0.09375 0  0.9375 0.09375 0  0.96875 0.09375 0  1 0.09375 0  0 0.125 0  0.03125 0.125 0  0.0625 0.125 0  0.09375 0.125 0  0.125 0.125 0  0.15625 0.125 0  0.1875 0.125 0  0.21875 0.125 0  0.25 0.125 0  0.28125 0.125 0  0.3125 0.125 0  0.34375 0.125 0  0.375 0.125 0  0.40625 0.125 0  0.4375 0.125 0  0.46875 0.125 0  0.5 0.125 0  0.53125 0.125 0  0.5625 0.125 0  0.59375 0.125 0  0.625 0.125 0  0.65625 0.125 0  0.6875 0.125 0  0.71875 0.125 0  0.75 0.125 0  0.78125 0.125 0  0.8125 0.125 0  0.84375 0.125 0  0.875 0.125 0  0.90625 0.125 0  0.9375 0.125 0  0.96875 0.125 0  1 0.125 0  0 0.15625 0  0.03125 0.15625 0  0.0625 0.15625 0  0.09375 0.15625 0  0.125 0.15625 0  0.15625 0.15625 0  0.1875 0.15625 0  0.21875 0.15625 0  0.25 0.15625 0  0.28125 0.15625 0  0.3125 0.15625 0  0.34375 0.15625 0  0.375 0.15625 0  0.40625 0.15625 0  0.4375 0.15625 0  0.46875 0.15625 0  0.5 0.15625 0  0.53125 0.15625 0  0.5625 0.15625 0  0.59375 0.15625 0  0.625 0.15625 0  0.65625 0.15625 0  0.6875 0.15625 0  0.71875 0.15625 0  0.75 0.15625 0  0.78125 0.15625 0  0.8125 0.15625 0  0.84375 0.15625 0  0.875 0.15625 0  0.90625 0.15625 0  0.9375 0.15625 0  0.96875 0.15625 0  1 0.15625 0  0 0.1875 0  0.03125 0.1875 0  0.0625 0.1875 0  0.09375 0.1875 0  0.125 0.1875 0  0.15625 0.1875 0  0.1875 0.1875 0  0.21875 0.1875 0  0.25 0.1875 0  0.28125 0.1875 0  0.3125 0.1875 0  0.34375 0.1875 0  0.375 0.1875 0  0.40625 0.1875 0  0.4375 0.1875 0  0.46875 0.1875 0  0.5 0.1875 0  0.53125 0.1875 0  0.5625 0.1875 0  0.59375 0.1875 0  0.625 0.1875 0  0.65625 0.1875 0  0.6875 0.1875 0  0.71875 0.1875 0  0.75 0.1875 0  0.78125 0.1875 0  0.8125 0.1875 0  0.84375 0.1875 0  0.875 0.1875 0  0.90625 0.1875 0  0.9375 0.1875 0  0.96875 0.1875 0  1 0.1875 0  0 0.21875 0  0.03125 0.21875 0  0.0625 0.21875 0  0.09375 0.21875 0  0.125 0.21875 0  0.15625 0.21875 0  0.1875 0.21875 0  0.21875 0.21875 0  0.25 0.21875 0  0.28125 0.21875 0  0.3125 0.21875 0  0.34375 0.21875 0  0.375 0.21875 0  0.40625 0.21875 0  0.4375 0.21875 0  0.46875 0.21875 0  0.5 0.21875 0  0.53125 0.21875 0  0.5625 0.21875 0  0.59375 0.21875 0  0.625 0.21875 0  0.65625 0.21875 0  0.6875 0.21875 0  0.71875 0.21875 0  0.75 0.21875 0  0.78125 0.21875 0  0.8125 0.21875 0  0.84375 0.21875 0  0.875 0.21875 0  0.90625 0.21875 0  0.9375 0.21875 0  0.96875 0.21875 0  1 0.21875 0  0 0.25 0  0.03125 0.25 0  0.0625 0.25 0  0.09375 0.25 0  0.125 0.25 0  0.15625 0.25 0  0.1875 0.25 0  0.21875 0.25 0  0.25 0.25 0  0.28125 0.25 0  0.3125 0.25 0  0.34375 0.25 0  0.375 0.25 0  0.40625 0.25 0  0.4375 0.25 0  0.46875 0.25 0  0.5 0.25 0  0.53125 0.25 0  0.5625 0.25 0  0.59375 0.25 0  0.625 0.25 0  0.65625 0.25 0  0.6875 0.25 0  0.71875 0.25 0  0.75 0.25 0  0.78125 0.25 0  0.8125 0.25 0  0.84375 0.25 0  0.875 0.25 0  0.90625 0.25 0  0.9375 0.25 0  0.96875 0.25 0  1 0.25 0  0 0.28125 0  0.03125 0.28125 0  0.0625 0.28125 0  0.09375 0.28125 0  0.125 0.28125 0  0.15625 0.28125 0  0.1875 0.28125 0  0.21875 0.28125 0  0.25 0.28125 0  0.28125 0.28125 0  0.3125 0.28125 0  0.34375 0.28125 0  0.375 0.28125 0  0.40625 0.28125 0  0.4375 0.28125 0  0.46875 0.28125 0  0.5 0.28125 0  0.53125 0.28125 0  0.5625 0.28125 0  0.59375 0.28125 0  0.625 0.28125 0  0.65625 0.28125 0  0.6875 0.28125 0  0.71875 0.28125 0  0.75 0.28125 0  0.78125 0.28125 0  0.8125 0.28125 0  0.84375 0.28125 0  0.875 0.28125 0  0.90625 0.28125 0  0.9375 0.28125 0  0.96875 0.28125 0  1 0.28125 0  0 0.3125 0  0.03125 0.3125 0  0.0625 0.3125 0  0.09375 0.3125 0  0.125 0.3125 0  0.15625 0.3125 0  0.1875 0.3125 0  0.21875 0.3125 0  0.25 0.3125 0  0.28125 0.3125 0  0.3125 0.3125 0  0.34375 0.3125 0  0.375 0.3125 0  0.40625 0.3125 0  0.4375 0.3125 0  0.46875 0.3125 0  0.5 0.3125 0  0.53125 0.3125 0  0.5625 0.3125 0  0.59375 0.3125 0  0.625 0.3125 0  0.65625 0.3125 0  0.6875 0.3125 0  0.71875 0.3125 0  0.75 0.3125 0  0.78125 0.3125 0  0.8125 0.3125 0  0.84375 0.3125 0  0.875 0.3125 0  0.90625 0.3125 0  0.9375 0.3125 0  0.96875 0.3125 0  1 0.3125 0  0 0.34375 0  0.03125 0.34375 0  0.0625 0.34375 0  0.09375 0.34375 0  0.125 0.34375 0  0.15625 0.34375 0  0.1875 0.34375 0  0.21875 0.34375 0  0.25 0.34375 0  0.28125 0.34375 0  0.3125 0.34375 0  0.34375 0.34375 0  0.375 0.34375 0  0.40625 0.34375 0  0.4375 0.34375 0  0.46875 0.34375 0  0.5 0.34375 0  0.53125 0.34375 0  0.5625 0.34375 0  0.59375 0.34375 0  0.625 0.34375 0  0.65625 0.34375 0  0.6875 0.34375 0  0.71875 0.34375 0  0.75 0.34375 0  0.78125 0.34375 0  0.8125 0.34375 0  0.84375 0.34375 0  0.875 0.34375 0  0.90625 0.34375 0  0.9375 0.34375 0  0.96875 0.34375 0  1 0.34375 0  0 0.375 0  0.03125 0.375 0  0.0625 0.375 0  0.09375 0.375 0  0.125 0.375 0  0.15625 0.375 0  0.1875 0.375 0  0.21875 0.375 0  0.25 0.375 0  0.28125 0.375 0  0.3125 0.375 0  0.34375 0.375 0  0.375 0.375 0  0.40625 0.375 0  0.4375 0.375 0  0.46875 0.375 0  0.5 0.375 0  0.53125 0.375 0  0.5625 0.375 0  0.59375 0.375 0  0.625 0.375 0  0.65625 0.375 0  0.6875 0.375 0  0.71875 0.375 0  0.75 0.375 0  0.78125 0.375 0  0.8125 0.375 0  0.84375 0.375 0  0.875 0.375 0  0.90625 0.375 0  0.9375 0.375 0  0.96875 0.375 0  1 0.375 0  0 0.40625 0  0.03125 0.40625 0  0.0625 0.40625 0  0.09375 0.40625 0  0.125 0.40625 0  0.15625 0.40625 0  0.1875 0.40625 0  0.21875 0.40625 0  0.25 0.40625 0  0.28125 0.40625 0  0.3125 0.40625 0  0.34375 0.40625 0  0.375 0.40625 0  0.40625 0.40625 0  0.4375 0.40625 0  0.46875 0.40625 0  0.5 0.40625 0  0.53125 0.40625 0  0.5625 0.40625 0  0.59375 0.40625 0  0.625 0.40625 0  0.65625 0.40625 0  0.6875 0.40625 0  0.71875 0.40625 0  0.75 0.40625 0  0.78125 0.40625 0  0.8125 0.40625 0  0.84375 0.40625 0  0.875 0.40625 0  0.90625 0.40625 0  0.9375 0.40625 0  0.96875 0.40625 0  1 0.40625 0  0 0.4375 0  0.03125 0.4375 0  0.0625 0.4375 0  0.09375 0.4375 0  0.125 0.4375 0  0.15625 0.4375 0  0.1875 0.4375 0  0.21875 0.4375 0  0.25 0.4375 0  0.28125 0.4375 0  0.3125 0.4375 0  0.34375 0.4375 0  0.375 0.4375 0  0.40625 0.4375 0  0.4375 0.4375 0  0.46875 0.4375 0  0.5 0.4375 0  0.53125 0.4375 0  0.5625 0.4375 0  0.59375 0.4375 0  0.625 0.4375 0  0.65625 0.4375 0  0.6875 0.4375 0  0.71875 0.4375 0  0.75 0.4375 0  0.78125 0.4375 0  0.8125 0.4375 0  0.84375 0.4375 0  0.875 0.4375 0  0.90625 0.4375 0  0.9375 0.4375 0  0.96875 0.4375 0  1 0.4375 0  0 0.46875 0  0.03125 0.46875 0  0.0625 0.46875 0  0.09375 0.46875 0  0.125 0.46875 0  0.15625 0.46875 0  0.1875 0.46875 0  0.21875 0.46875 0  0.25 0.46875 0  0.28125 0.46875 0  0.3125 0.46875 0  0.34375 0.46875 0  0.375 0.46875 0  0.40625 0.46875 0  0.4375 0.46875 0  0.46875 0.46875 0  0.5 0.46875 0  0.53125 0.46875 0  0.5625 0.46875 0  0.59375 0.46875 0  0.625 0.46875 0  0.65625 0.46875 0  0.6875 0.46875 0  0.71875 0.46875 0  0.75 0.46875 0  0.78125 0.46875 0  0.8125 0.46875 0  0.84375 0.46875 0  0.875 0.46875 0  0.90625 0.46875 0  0.9375 0.46875 0  0.96875 0.46875 0  1 0.46875 0  0 0.5 0  0.03125 0.5 0  0.0625 0.5 0  0.09375 0.5 0  0.125 0.5 0  0.15625 0.5 0  0.1875 0.5 0  0.21875 0.5 0  0.25 0.5 0  0.28125 0.5 0  0.3125 0.5 0  0.34375 0.5 0  0.375 0.5 0  0.40625 0.5 0  0.4375 0.5 0  0.46875 0.5 0  0.5 0.5 0  0.53125 0.5 0  0.5625 0.5 0  0.59375 0.5 0  0.625 0.5 0  0.65625 0.5 0  0.6875 0.5 0  0.71875 0.5 0  0.75 0.5 0  0.78125 0.5 0  0.8125 0.5 0  0.84375 0.5 0  0.875 0.5 0  0.90625 0.5 0  0.9375 0.5 0  0.96875 0.5 0  1 0.5 0  0 0.53125 0  0.03125 0.53125 0  0.0625 0.53125 0  0.09375 0.53125 0  0.125 0.53125 0  0.15625 0.53125 0  0.1875 0.53125 0  0.21875 0.53125 0  0.25 0.53125 0  0.28125 0.53125 0  0.3125 0.53125 0  0.34375 0.53125 0  0.375 0.53125 0  0.40625 0.53125 0  0.4375 0.53125 0  0.46875 0.53125 0  0.5 0.53125 0  0.53125 0.53125 0  0.5625 0.53125 0  0.59375 0.53125 0  0.625 0.53125 0  0.65625 0.53125 0  0.6875 0.53125 0  0.71875 0.53125 0  0.75 0.53125 0  0.78125 0.531
[...]
<PointData  Scalars="theta_dt"> 
<DataArray  type="Float64"  Name="theta_dt"  format="ascii">5.3212331897833881e-05  3.2882121375461725e-05  -2.1797780840475147e-16  -4.3726846518055293e-05  -1.3680146632242070e-05  2.0032604474647698e-05  6.7800390151226479e-05  5.9576438526969613e-05  2.2597814819526353e-05  -2.2597814820073590e-05  -5.9576438527451494e-05  -6.7800390151561037e-05  -2.0032604474724755e-05  3.2749698651265416e-05  3.1191866920357800e-05  8.6316402886106982e-05  1.2848342853141403e-04  1.1209282004760286e-04  7.2284885693126656e-05  -5.4613393425323522e-16  -5.7628704671733025e-16  -8.2127962911511684e-05  -1.0294241885194970e-04  -1.5261975056795723e-04  -1.1308462569570971e-04  -1.4556824413450520e-04  -1.0665467556415191e-04  -8.6316402886410355e-05  -1.4183004117975168e-04  -3.2749698651358366e-05  -2.9809193149768849e-05  -2.3455950650286832e-05  -1.9561676925894378e-05  -5.8191866957900215e-06  5.4435199082200489e-05  2.9938947369891849e-05  -2.3705837065430352e-16  -4.5537797648404007e-05  -1.3740597109828720e-05  1.8724225245511989e-05  6.1731793068268807e-05  5.5497799499207764e-05  2.1644071410680756e-05  -2.1644071411204883e-05  -5.5497799499656651e-05  -6.1731793068573455e-05  -1.8724225245583994e-05  3.2894414565320183e-05  3.2483680786555175e-05  9.3872059631529503e-05  1.1698328586475658e-04  1.1466881373836058e-04  7.9463599799396031e-05  -5.0346894776604005e-16  -6.1139779781572919e-16  -7.4776950401961358e-05  -1.0921426838659795e-04  -1.4069681520858512e-04  -1.2431521961447651e-04  -1.4891353313968770e-04  -9.7108355084745277e-05  -9.3872059631859426e-05  -1.4770394460166477e-04  -3.2894414565413499e-05  -2.7862280595097737e-05  -2.1356483178538744e-05  -1.4378904513447642e-05  -6.3552437675681124e-06  5.4675739909028172e-05  2.7422867850251148e-05  -2.6060097230757124e-16  -4.6488911448883448e-05  -1.3544616595978627e-05  1.7261454362806625e-05  5.6543831770538964e-05  5.3155508401571725e-05  2.1481805158760692e-05  -2.1481805159280895e-05  -5.3155508402001713e-05  -5.6543831770818004e-05  -1.7261454362873002e-05  3.2425245415116501e-05  3.3162143046083102e-05  1.0319462647520227e-04  1.0715196995147263e-04  1.1517551770441613e-04  8.7410289555766820e-05  -4.5976461139167326e-16  -6.3671889049022422e-16  -6.8492669557913691e-05  -1.1373738675744250e-04  -1.2848342853208336e-04  -1.3674725748798408e-04  -1.4957155928804739e-04  -8.8947335246738641e-05  -1.0319462647556498e-04  -1.5078892603138962e-04  -3.2425245415208529e-05  -2.5685628036934109e-05  -1.1168623784376871e-05  -1.4271105435453365e-05  -6.8532109578161998e-06  5.3895906287762879e-05  2.5545481725255491e-05  -2.8666215104053605e-16  -5.1126693390160459e-05  -1.3104144088928704e-05  1.5763049324858886e-05  5.2672806836174742e-05  5.2756999962305926e-05  2.2130235407138515e-05  -2.2130235407674409e-05  -5.2756999962732661e-05  -5.2672806836434666e-05  -1.5763049324919499e-05  3.1370772662898052e-05  1.3986274834594769e-04  1.1351451738365858e-04  9.9816281257228249e-05  1.1353278289731550e-04  9.5462429195218213e-05  -4.1861254466587131e-16  -6.5001756005801865e-16  -6.3803619959085491e-05  -1.1611293418752913e-04  -1.1698328586536594e-04  -1.4934426429577842e-04  -1.4743823780191928e-04  -8.2857946858936129e-05  -1.1351451738405752e-04  -3.0759211498930506e-05  -3.1370772662987051e-05  1.4099143950265314e-05  -1.0199115549803512e-05  -1.4701880054892783e-05  -7.2707483387712975e-06  5.2143205146754041e-05  2.4467331691023177e-05  -3.1306915279347354e-16  -5.3212331898226660e-05  -1.2451843835843956e-05  1.4352148960746064e-05  5.0449744883211432e-05  5.4349474818883583e-05  2.3541038153353256e-05  -2.3541038153923316e-05  -5.4349474819323221e-05  -5.0449744883460391e-05  -1.4352148960801247e-05  2.9809193149684254e-05  1.4556824413399362e-04  1.2397134975114556e-04  9.5603523470475340e-05  1.0984068359271185e-04  1.0294241885087708e-04  -3.8343220123944573e-16  -1.0769938165523103e-04  -6.1110780740671945e-05  -1.6848811677891827e-04  -1.0715196995203089e-04  -1.6104618264713288e-04  -1.4264352916033856e-04  -7.9360917552416370e-05  -1.2397134975158133e-04  -3.2013988440798401e-05  2.6374592773481368e-05  1.3640638149157947e-05  -9.2862251853641271e-06  -1.5639125067174584e-05  -7.5718670100466680e-06  4.9547612051695355e-05  2.4283899372183740e-05  -3.3759978797783735e-16  -5.4435199082602301e-05  -1.1638582941092202e-05  1.3145989384832556e-05  5.0071521634119656e-05  5.7814254425569384e-05  2.5601689405842605e-05  -2.5601689406462565e-05  -5.7814254426037041e-05  -5.0071521634366766e-05  -1.3145989384883107e-05  2.7862280595018661e-05  1.4891353313916444e-04  1.3368516513960921e-04  9.4886780990303623e-05  1.0437301586712101e-04  1.0921426838545999e-04  -3.5718220075027798e-16  -1.1209282004877092e-04  -6.0652631386304006e-05  -1.7536134250904726e-04  -9.9816281257748233e-05  -1.7085805065020505e-04  -1.3554299595948627e-04  -7.8765946375514205e-05  -1.3368516514007911e-04  -3.6711998832385747e-06  2.6980704606085242e-05  1.2961632205957842e-05  -8.5058076003703613e-06  -1.7008086896622212e-05  -7.7300149131195069e-06  4.6311534259426478e-05  2.5016911090012553e-05  -3.5816832616394057e-16  -5.4675739909431726e-05  -1.0729355455364236e-05  1.2246006997680485e-05  5.1582935082380364e-05  6.2874991977486476e-05  2.8144229345136232e-05  -2.8144229345817775e-05  -6.2874991977995062e-05  -5.1582935082634921e-05  -1.2246006997727573e-05  2.5685628036861214e-05  1.4957155928752174e-04  1.4183004117925317e-04  9.7750947130467212e-05  9.7556154574041676e-05  1.1373738675625742e-04  -3.4210728432835095e-16  -1.1466881373955544e-04  -6.2483436597687695e-05  -1.7939130367617873e-04  -9.5603523470973341e-05  -1.7793415159488224e-04  -1.2669034573157138e-04  -8.1143503652220019e-05  -1.0340933565608466e-05  7.1698974119215886e-06  2.7099928216979752e-05  1.2115075764660650e-05  -7.9234948656841722e-06  -1.8697184031585886e-05  1.2848683832935523e-05  4.2693592103750998e-05  2.6611739442187016e-05  -3.7300189836892141e-16  -5.3895906288160666e-05  -9.7979785313611793e-06  1.1729162844739520e-05  5.4871347750985103e-05  6.9119196246640832e-05  3.0958769079084249e-05  -3.0958769079833940e-05  -6.9119196247199914e-05  -5.4871347751255896e-05  -1.1729162844784624e-05  2.3455950650220278e-05  1.4743823780140087e-04  1.4770394460114565e-04  1.0398257106575845e-04  8.9934888515312957e-05  1.1611293418631930e-04  -3.3954249576666121e-16  -1.1517551770561618e-04  -6.6466756355620249e-05  -1.8018400643541376e-04  -9.4886780990797965e-05  -1.8165052866838847e-04  -1.1679306312435445e-04  -1.6743420241122324e-16  -1.0556916883467405e-05  7.4623828661846238e-06  2.6713405141249291e-05  1.1168623783980561e-05  -7.5890828411799968e-06  -2.0566980028644557e-05  1.3372827054470269e-05  3.8987514263972469e-05  2.8941182768145517e-05  -3.8079250905859195e-16  -5.2143205147138899e-05  -8.9209926644409953e-06  1.1641228959433790e-05  5.9674479657584544e-05  7.6031402718136932e-05  3.3810656802568757e-05  -3.3810656803387512e-05  -7.6031402718751919e-05  -5.9674479657879040e-05  -1.1641228959478549e-05  2.1356483178478131e-05  1.4264352915983715e-04  1.5078892603085964e-04  1.1308462569512054e-04  8.2127962910655936e-05  -6.0291723547547334e-16  -3.4979161697587230e-16  -1.1353278289849855e-04  -7.2284885693879851e-05  -1.7761406323086982e-04  -9.7750947130976435e-05  -1.3986274834643919e-04  1.0556916883216032e-05  -1.7093127492700758e-16  -3.4051844449902530e-06  7.6338751274476230e-06  2.5844682099070296e-05  1.0199115549441595e-05  -7.5321872597164519e-06  -2.2461587585650736e-05  1.3680146632167386e-05  3.5497865977194368e-05  3.1815372510546402e-05  -4.3120321193358410e-05  -4.9547612052061036e-05  -8.1712693471663987e-06  1.1992620517536166e-05  6.5600836527274136e-05  8.3035331829700145e-05  3.6459901801531275e-05  -3.6459901802414188e-05  -8.3035331830371754e-05  -6.5600836527597879e-05  -1.1992620517582278e-05  1.9561676925838864e-05  1.3554299595900984e-04  1.6848811677804058e-04  1.2431521961382884e-04  7.4776950401182237e-05  -6.2751236025478243e-16  -3.7209083633588323e-16  -1.0984068359385633e-04  -7.9463599800224036e-05  -1.7183803323664670e-04  -1.0398257106630017e-04  1.0191410567137845e-05  -1.5854558102413570e-16  -9.7919618386254054e-06  -3.5440939526195192e-06  7.6676080551491017e-06  2.4558181236464422e-05  9.2862251850346092e-06  -7.7595470192687995e-06  -2.4221572578770507e-05  1.3740597109753708e-05  3.2514613009991185e-05  3.4997041796394705e-05  -4.4879351484536194e-05  -4.6311534259768327e-05  -7.6118593037040066e-06  1.2757150205051088e-05  7.2161192425530400e-05  8.9541592233677696e-05  3.8681250597270438e-05  -3.8681250598207134e-05  -8.9541592234401929e-05  -7.2161192425886493e-05  -1.2757150205100140e-05  1.8222472687873604e-05  1.2669034573112615e-04  1.7536134250813372e-04  1.3674725748727168e-04  6.8492669557200015e-05  -6.4193315794907059e-16  -4.0466159396095118e-16  -1.0437301586820857e-04  -8.7410289556677590e-05  -1.6328425118043811e-04  3.5896219678829815e-06  1.0425618336285944e-05  -1.6501321558333257e-16  -1.0191410567380515e-05  -3.6255404150916312e-06  7.5582458669823067e-06  2.2954225331689069e-05  8.5058076000685381e-06  -8.2542182255513846e-06  -2.5697291338838614e-05  1.3544616595904681e-05  3.0288642930643686e-05  3.8220930756658388e-05  -4.5910719294003041e-05  -4.2693592104066121e-05  -7.2905998944227719e-06  1.3873840020384860e-05  7.8808602025849699e-05  9.4996985645310334e-05  4.0283237936181426e-05  -4.0283237937156916e-05  -9.4996985646078735e-05  -7.8808602026238602e-05  -1.3873840020438209e-05  1.7453391103759059e-05  1.1679306312394390e-04  1.7939130367524418e-04  1.4934426429500037e-04  6.3803619958420726e-05  -6.4476976248408815e-16  -4.4484910847353421e-16  -9.7556154575058183e-05  -9.5462429196212887e-05  -1.0281104734546317e-06  3.4728870439852928e-06  1.0471687550637724e-05  -1.6880536749862708e-16  -1.0425618336534196e-05  -3.6415611241888180e-06  7.3124508323027781e-06  2.1160999069454222e-05  7.9234948654030030e-06  -8.9767464765996515e-06  -2.6761546882118059e-05  1.3104144088857167e-05  2.9010307224793984e-05  4.1215744204206592e-05  -4.6113591747221350e-05  -3.8987514264260230e-05  -7.2359420485549647e-06  1.5251670670699239e-05  8.4983675642767641e-05  9.8931294021814428e-05  4.1124603691831708e-05  -4.1124603692827574e-05  -9.8931294022614651e-05  -8.4983675643187024e-05  -1.5251670670757884e-05  1.7322542507671728e-05  1.0665467556377704e-04  1.8018400643447503e-04  1.6104618264629393e-04  6.1110780740035193e-05  -6.3557348750734553e-16  -4.8933586545863824e-16  -8.9934888516250006e-05  -1.2615617395261056e-06  -9.3886388503791975e-07  3.3000130979760853e-06  1.0322331107780991e-05  -1.6955129262346692e-16  -1.0471687550887069e-05  -3.5896219679330433e-06  6.9484504446230671e-06  1.9324088520248206e-05  7.5890828409106971e-06  -9.8682398495510236e-06  -2.7320495225608096e-05  1.2451843835775972e-05  2.8792816082249823e-05  4.3726846517424084e-05  -4.5455879034021324e-05  -3.5497865977456386e-05  -7.4543596193836664e-06  1.6776901032680745e-05  9.0161374325944610e-05  1.0099759770584284e-04  -3.8144711607930926e-05  -9.3679303669162687e-05  -1.0099759770665976e-04  -9.0161374326389539e-05  -1.6776901032745258e-05  1.7845425033500975e-05  9.7108355084404038e-05  1.7761406322994454e-04  1.7085805064931498e-04  6.0652631385671991e-05  -6.1490456377125739e-16  -5.3441294664998887e-16  1.8044848323237246e-06  -1.2521037733627879e-06  -8.5482916751893239e-07  3.0844810337988097e-06  9.9866476995851775e-06  -1.6713300256032813e-16  -1.0322331108026787e-05  -3.4728870440337270e-06  6.4946298618861001e-06  1.7594450874163479e-05  7.5321872594491783e-06  -1.0855104788010973e-05  -7.1698974119810054e-06  1.1638582941028659e-05  2.9661929862294310e-05  4.5537797647746642e-05  -4.3977648560947788e-05  -3.2514613010231187e-05  -7.9295751256275097e-06  1.8322370685269137e-05  9.3895415441439721e-05  3.8144711607007220e-05  -3.9700769200028023e-05  -9.7500813533886983e-05  -8.8910766034390882e-05  -9.3895415441903082e-05  -1.8322370685339596e-05  1.8983071072119775e-05  8.8947335246426052e-05  1.7183803323575139e-04  1.7793415159395528e-04  6.2483436597036672e-05  -5.8429574263429866e-16  2.3140272686002982e-06  1.9707119884284160e-06  -1.2898986399839160e-06  -7.8298902783022460e-07  2.8435157075790083e-06  9.4895306976887126e-06  -1.6169781787814320e-16  -9.9866476998229651e-06  -3.3000130980221076e-06  5.9872574429288545e-06  1.6115807121032519e-05  7.7595470189934528e-06  -1.1855065090146542e-05  -7.4623828662464589e-06  1.0729355455305662e-05  3.1552878211368616e-05  4.6488911448212354e-05  -4.1788521892948583e-05  -3.0288642930867222e-05  -8.6236859294029719e-06  1.9758025993313875e-05  9.5856538509305804e-05  3.9700769199066661e-05  -4.0613128536995987e-05  -9.9741469807860346e-05  -9.2537750396705953e-05  -9.5856538509778841e-05  -1.9758025993389850e-05  2.0644743294306209e-05  8.2857946858644899e-05  1.6328425117958744e-04  1.8165052866744215e-04  6.6466756354927701e-05  9.3886388501152991e-07  2.3672056937806465e-06  2.1251277665727441e-06  -1.3721296922139788e-06  -7.2938512524427275e-07  2.5966802919664890e-06  8.8697458427131696e-06  -1.5364879714017092e-16  -9.4895306979146552e-06  -3.0844810338418254e-06  5.4675250653775594e-06  1.5012509214797827e-05  8.2542182252584874e-06  -1.2783972567035893e-05  -7.6338751275108743e-06  9.7979785313076891e-06  3.4314841281235990e-05  -3.5320025328374712e-16  -3.9059209579603956e-05  -2.9010307225008117e-05  -9.4801163606864509e-06  2.0961799593290703e-05  9.3679303668404965e-05  4.0613128536012514e-05  -4.0792591746152145e-05  -1.0018221212204493e-04  -9.4664351021773524e-05  -2.0671043151574137e-05  -2.0961799593371307e-05  2.2695001913186991e-05  7.9360917552137445e-05  1.5261975056716221e-04  1.0769938165410890e-04  -1.8300723402885973e-07  8.5482916749490524e-07  2.3776660140229435e-06  2.2546028822975471e-06  -1.4922382766536077e-06  -6.9860134100374343e-07  2.3642597054469516e-06  8.1768249989614235e-06  -1.4361361199915223e-16  -8.8697458429243722e-06  -2.8435157076186638e-06  4.9781443023946206e-06  1.4378904513272650e-05  8.9767464762811146e-06  -1.3562846361626174e-05  -7.6676080552126359e-06  8.9209926643922892e-06  3.7722696641287099e-05  -3.6760853984524594e-16  -3.6007832354358001e-05  -2.8792816082462347e-05  -1.0428167339535292e-05  2.1829934336369840e-05  9.7500813533098307e-05  4.0792591745164355e-05  -4.0210771827571673e-05  -9.8753325061796864e-05  -9.5082658323846603e-05  -2.1514288054384891e-05  -2.1829934336453784e-05  2.4964596289475353e-05  7.8765946375237341e-05  1.4069681520785220e-04  -2.6525293311828245e-07  -2.0130871691750611e-07  7.8298902780821667e-07  2.3437536444608697e-06  2.3479774556617227e-06  -1.6404345678119816e-06  -6.9336390581698502e-07  2.1655664998879241e-06  7.4670241029685214e-06  -1.3239425273392133e-16  -8.1768249991561293e-06  -2.5966802920027005e-06  4.5597793288262005e-06  1.4271105435279688e-05  9.8682398492008534e-06  -1.4124552816702712e-05  -7.5582458670449338e-06  8.1712693471217922e-06  4.1495122855789847e-05  -3.7605651429095819e-16  -3.2882121375936416e-05  -2.9661929862513248e-05  -1.1388798633954396e-05  2.2285879790104560e-05  9.9741469807053577e-05  4.0210771826597958e-05  -3.8903112850900367e-05  -9.5541855444975041e-05  -9.3726505597178589e-05  -2.2008705718832083e-05  -2.2285879790190256e-05  2.7264307414870254e-05  8.1143503651934820e-05  -1.9784057038004515e-17  -2.6146966185887109e-07  -2.1985305428895935e-07  7.2938512522377106e-07  2.2675345033454529e-06  2.3970178984722620e-06  -1.8044848324480801e-06  -7.1429315856564261e-07  2.0173105070484387e-06  6.7986745464456583e-06  -1.2090158177339764e-16  -7.4670241031463196e-06  -2.3642597054799236e-06  4.2476140771199737e-06  1.4701880054713864e-05  1.0855104787625781e-05  -1.4419561750013250e-05  -7.3124508323633697e-06  7.6118593036624486e-06  4.5317607889177661e-05  -3.7771825056466745e-16  -2.9938947370324042e-05  -3.1552878211601502e-05  -1.2281171651177252e-05  8.8910766033952160e-05  1.0018221212123461e-04  3.8903112849958270e-05  -3.6966587261268983e-05  -9.0785957153258513e-05  -9.0678508734006027e-05  -2.2105958826385188e-05  3.0759211498843227e-05  2.9400611080628505e-05  -3.6563141527548437e-17  -2.0381240604481573e-17  -2.5296663804417970e-07  -2.3707971178877488e-07  6.9860134098410698e-07  2.1546607955799610e-06  -2.2233297892794259e-06  -1.9707119885642263e-06  -7.5982935513866923e-07  1.9321696819262707e-06  6.2273115798165358e-06  -1.1008006607358360e-16  -6.7986745466075391e-06  -2.1655664999181238e-06  4.0683430298206324e-06  1.5639125066984259e-05  1.1855065089725868e-05  -2.5340849948383343e-05  -6.9484504446806442e-06  7.2905998943829690e-06  4.8868483779178915e-05  -3.7233089976436854e-16  -2.7422867850647011e-05  -3.4314841281489273e-05  -1.3029411896203443e-05  9.2537750396249314e-05  9.8753325060998051e-05  3.6966587260373819e-05  -3.4552207493231951e-05  -8.4856500462449492e-05  -8.6164698919711220e-05  -2.1790664146298483e-05  3.2013988440707525e-05  1.3968496687217980e-07  -3.7403395362265444e-17  -2.1680544913137536e-17  -2.4037442287175734e-07  -2.5152398361218567e-07  6.9336390579749575e-07  2.0139345393241865e-06  -2.3140272687597687e-06  -2.1251277667191961e-06  -8.2634058128532269e-07  1.9176841479243337e-06  5.8009860612816386e-06  -1.0082889914555138e-16  -6.2273115799648165e-06  -2.0173105070765720e-06  4.0378425402201280e-06  1.7008086896415231e-05  1.2783972566582256e-05  -2.6374592773802349e-05  -6.4946298619399188e-06  7.2359420485154599e-06  5.1845835396399100e-05  -3.6022265559892951e-16  -2.5545481725624248e-05  -3.7722696641565529e-05  -1.3569026116759358e-05  9.4664351021306396e-05  9.5541855444202249e-05  3.4552207492395285e-05  -3.1852925552773128e-05  -7.8227354719049728e-05  -8.0537068099467300e-05  -2.1082029213829959e-05  2.6525293309579405e-07  1.4390137033986673e-07  -3.7568675250982591e-17  -2.3578338958535022e-17  -2.2467497138511138e-07  -2.6194087114703725e-07  7.1429315854556518e-07  1.8566022724254965e-06  -2.3672056939437800e-06  -2.2546028824529226e-06  -9.0840563168381600e-07  1.9755696188686440e-06  5.5561547683031748e-06  -9.3926091704399381e-17  -5.8009860614197702e-06  -1.9321696819532169e-06  4.1597251856456512e-06  1.8697184031358346e-05  1.3562846361144898e-05  -2.6980704606413596e-05  -5.9872574429784686e-06  7.4543596193429699e-06  5.3993035153331339e-05  -3.4229143263469482e-16  -2.4467331691376369e-05  -4.1495122856096141e-05  -1.3852432180846166e-05  9.5082658323377320e-05  9.0785957152524156e-05  3.1852925552001800e-05  -2.9087887154589785e-05  -7.1436718197198095e-05  -7.4245364349396389e-05  -2.6011030013295392e-18  2.6146966183670360e-07  1.5307508425318834e-07  -3.7032837672636880e-17  -2.5919937106764918e-17  -2.0712294977110231e-07  -2.6741183351946293e-07  7.5982935511731204e-07  1.6954372778661826e-06  -2.3776660141868011e-06  -2.3479774558235327e-06  -9.9924996476405663e-07  2.1015122034079510e-06  5.5145001095177029e-06  -8.9961930054384758e-17  -5.5561547684354754e-06  -1.9176841479510796e-06  4.4249077111561796e-06  2.0566980028394262e-05  1.4124552816201506e-05  -2.7099928217309539e-05  -5.4675250654228655e-06  7.9295751255842229e-06  5.5120747153384654e-05  -3.1993552772292366e-16  -2.4283899372534293e-05  -4.5317607889512145e-05  2.0671043151494658e-05  9.3726505596716041e-05  8.4856500461763152e-05  2.9087887153885420e-05  -2.6484322975356928e-05  -6.5042644966931538e-05  -2.6883163028012217e-18  -2.8612240961215200e-18  2.5296663802273278e-07  1.6647442382506328e-07  -3.5828525484303516e-17  -2.8512038385993259e-17  -1.8914334823298759e-07  1.2311891868438971e-06  8.2634058126209578e-07  1.5436840844723490e-06  -2.3437536446223857e-06  -2.3970178986374516e-06  -1.0912997713931012e-06  2.2854668669985810e-06  5.6809557983793906e-06  -8.9287482769101066e-17  -5.5145001096490066e-06  -1.9755696188961963e-06  4.8122394659303418e