<?xml version="1.0"?>
<VTKFile type="UnstructuredGrid"  version="0.1"  >
<UnstructuredGrid>
<Piece  NumberOfPoints="1089" NumberOfCells="2048">
<Points>
<DataArray  type="Float64"  NumberOfComponents="3"  format="ascii">0 0 0  0.03125 0 0  0.0625 0 0  0.09375 0 0  0.125 0 0  0.15625 0 0  0.1875 0 0  0.21875 0 0  0.25 0 0  0.28125 0 0  0.3125 0 0  0.34375 0 0  0.375 0 0  0.40625 0 0  0.4375 0 0  0.46875 0 0  0.5 0 0  0.53125 0 0  0.5625 0 0  0.59375 0 0  0.625 0 0  0.65625 0 0  0.6875 0 0  0.71875 0 0  0.75 0 0  0.78125 0 0  0.8125 0 0  0.84375 0 0  0.875 0 0  0.90625 0 0  0.9375 0 0  0.96875 0 0  1 0 0  0 0.03125 0  0.03125 0.03125 0  0.0625 0.03125 0  0.09375 0.03125 0  0.125 0.03125 0  0.15625 0.03125 0  0.1875 0.03125 0  0.21875 0.03125 0  0.25 0.03125 0  0.28125 0.03125 0  0.3125 0.03125 0  0.34375 0.03125 0  0.375 0.03125 0  0.40625 0.03125 0  0.4375 0.03125 0  0.46875 0.03125 0  0.5 0.03125 0  0.53125 0.03125 0  0.5625 0.03125 0  0.59375 0.03125 0  0.625 0.03125 0  0.65625 0.03125 0  0.6875 0.03125 0  0.71875 0.03125 0  0.75 0.03125 0  0.78125 0.03125 0  0.8125 0.03125 0  0.84375 0.03125 0  0.875 0.03125 0  0.90625 0.03125 0  0.9375 0.03125 0  0.96875 0.03125 0  1 0.03125 0  0 0.0625 0  0.03125 0.0625 0  0.0625 0.0625 0  0.09375 0.0625 0  0.125 0.0625 0  0.15625 0.0625 0  0.1875 0.0625 0  0.21875 0.0625 0  0.25 0.0625 0  0.28125 0.0625 0  0.3125 0.0625 0  0.34375 0.0625 0  0.375 0.0625 0  0.40625 0.0625 0  0.4375 0.0625 0  0.46875 0.0625 0  0.5 0.0625 0  0.53125 0.0625 0  0.5625 0.0625 0  0.59375 0.0625 0  0.625 0.0625 0  0.65625 0.0625 0  0.6875 0.0625 0  0.71875 0.0625 0  0.75 0.0625 0  0.78125 0.0625 0  0.8125 0.0625 0  0.84375 0.0625 0  0.875 0.0625 0  0.90625 0.0625 0  0.9375 0.0625 0  0.96875 0.0625 0  1 0.0625 0  0 0.09375 0  0.03125 0.09375 0  0.0625 0.09375 0  0.09375 0.09375 0  0.125 0.09375 0  0.15625 0.09375 0  0.1875 0.09375 0  0.21875 0.09375 0  0.25 0.09375 0  0.28125 0.09375 0  0.3125 0.09375 0  0.34375 0.09375 0  0.375 0.09375 0  0.40625 0.09375 0  0.4375 0.09375 0  0.46875 0.09375 0  0.5 0.09375 0  0.53125 0.09375 0  0.5625 0.09375 0  0.59375 0.09375 0  0.625 0.09375 0  0.65625 0.09375 0  0.6875 0.09375 0  0.71875 0.09375 0  0.75 0.09375 0  0.78125 0.09375 0  0.8125 0.09375 0  0.84375 0.09375 0  0.875 0.09375 0  0.90625 0.09375 0  0.9375 0.09375 0  0.96875 0.09375 0  1 0.09375 0  0 0.125 0  0.03125 0.125 0  0.0625 0.125 0  0.09375 0.125 0  0.125 0.125 0  0.15625 0.125 0  0.1875 0.125 0  0.21875 0.125 0  0.25 0.125 0  0.28125 0.125 0  0.3125 0.125 0  0.34375 0.125 0  0.375 0.125 0  0.40625 0.125 0  0.4375 0.125 0  0.46875 0.125 0  0.5 0.125 0  0.53125 0.125 0  0.5625 0.125 0  0.59375 0.125 0  0.625 0.125 0  0.65625 0.125 0  0.6875 0.125 0  0.71875 0.125 0  0.75 0.125 0  0.78125 0.125 0  0.8125 0.125 0  0.84375 0.125 0  0.875 0.125 0  0.90625 0.125 0  0.9375 0.125 0  0.96875 0.125 0  1 0.125 0  0 0.15625 0  0.03125 0.15625 0  0.0625 0.15625 0  0.09375 0.15625 0  0.125 0.15625 0  0.15625 0.15625 0  0.1875 0.15625 0  0.21875 0.15625 0  0.25 0.15625 0  0.28125 0.15625 0  0.3125 0.15625 0  0.34375 0.15625 0  0.375 0.15625 0  0.40625 0.15625 0  0.4375 0.15625 0  0.46875 0.15625 0  0.5 0.15625 0  0.53125 0.15625 0  0.5625 0.15625 0  0.59375 0.15625 0  0.625 0.15625 0  0.65625 0.15625 0  0.6875 0.15625 0  0.71875 0.15625 0  0.75 0.15625 0  0.78125 0.15625 0  0.8125 0.15625 0  0.84375 0.15625 0  0.875 0.15625 0  0.90625 0.15625 0  0.9375 0.15625 0  0.96875 0.15625 0  1 0.15625 0  0 0.1875 0  0.03125 0.1875 0  0.0625 0.1875 0  0.09375 0.1875 0  0.125 0.1875 0  0.15625 0.1875 0  0.1875 0.1875 0  0.21875 0.1875 0  0.25 0.1875 0  0.28125 0.1875 0  0.3125 0.1875 0  0.34375 0.1875 0  0.375 0.1875 0  0.40625 0.1875 0  0.4375 0.1875 0  0.46875 0.1875 0  0.5 0.1875 0  0.53125 0.1875 0  0.5625 0.1875 0  0.59375 0.1875 0  0.625 0.1875 0  0.65625 0.1875 0  0.6875 0.1875 0  0.71875 0.1875 0  0.75 0.1875 0  0.78125 0.1875 0  0.8125 0.1875 0  0.84375 0.1875 0  0.875 0.1875 0  0.90625 0.1875 0  0.9375 0.1875 0  0.96875 0.1875 0  1 0.1875 0  0 0.21875 0  0.03125 0.21875 0  0.0625 0.21875 0  0.09375 0.21875 0  0.125 0.21875 0  0.15625 0.21875 0  0.1875 0.21875 0  0.21875 0.21875 0  0.25 0.21875 0  0.28125 0.21875 0  0.3125 0.21875 0  0.34375 0.21875 0  0.375 0.21875 0  0.40625 0.21875 0  0.4375 0.21875 0  0.46875 0.21875 0  0.5 0.21875 0  0.53125 0.21875 0  0.5625 0.21875 0  0.59375 0.21875 0  0.625 0.21875 0  0.65625 0.21875 0  0.6875 0.21875 0  0.71875 0.21875 0  0.75 0.21875 0  0.78125 0.21875 0  0.8125 0.21875 0  0.84375 0.21875 0  0.875 0.21875 0  0.90625 0.21875 0  0.9375 0.21875 0  0.96875 0.21875 0  1 0.21875 0  0 0.25 0  0.03125 0.25 0  0.0625 0.25 0  0.09375 0.25 0  0.125 0.25 0  0.15625 0.25 0  0.1875 0.25 0  0.21875 0.25 0  0.25 0.25 0  0.28125 0.25 0  0.3125 0.25 0  0.34375 0.25 0  0.375 0.25 0  0.40625 0.25 0  0.4375 0.25 0  0.46875 0.25 0  0.5 0.25 0  0.53125 0.25 0  0.5625 0.25 0  0.59375 0.25 0  0.625 0.25 0  0.65625 0.25 0  0.6875 0.25 0  0.71875 0.25 0  0.75 0.25 0  0.78125 0.25 0  0.8125 0.25 0  0.84375 0.25 0  0.875 0.25 0  0.90625 0.25 0  0.9375 0.25 0  0.96875 0.25 0  1 0.25 0  0 0.28125 0  0.03125 0.28125 0  0.0625 0.28125 0  0.09375 0.28125 0  0.125 0.28125 0  0.15625 0.28125 0  0.1875 0.28125 0  0.21875 0.28125 0  0.25 0.28125 0  0.28125 0.28125 0  0.3125 0.28125 0  0.34375 0.28125 0  0.375 0.28125 0  0.40625 0.28125 0  0.4375 0.28125 0  0.46875 0.28125 0  0.5 0.28125 0  0.53125 0.28125 0  0.5625 0.28125 0  0.59375 0.28125 0  0.625 0.28125 0  0.65625 0.28125 0  0.6875 0.28125 0  0.71875 0.28125 0  0.75 0.28125 0  0.78125 0.28125 0  0.8125 0.28125 0  0.84375 0.28125 0  0.875 0.28125 0  0.90625 0.28125 0  0.9375 0.28125 0  0.96875 0.28125 0  1 0.28125 0  0 0.3125 0  0.03125 0.3125 0  0.0625 0.3125 0  0.09375 0.3125 0  0.125 0.3125 0  0.15625 0.3125 0  0.1875 0.3125 0  0.21875 0.3125 0  0.25 0.3125 0  0.28125 0.3125 0  0.3125 0.3125 0  0.34375 0.3125 0  0.375 0.3125 0  0.40625 0.3125 0  0.4375 0.3125 0  0.46875 0.3125 0  0.5 0.3125 0  0.53125 0.3125 0  0.5625 0.3125 0  0.59375 0.3125 0  0.625 0.3125 0  0.65625 0.3125 0  0.6875 0.3125 0  0.71875 0.3125 0  0.75 0.3125 0  0.78125 0.3125 0  0.8125 0.3125 0  0.84375 0.3125 0  0.875 0.3125 0  0.90625 0.3125 0  0.9375 0.3125 0  0.96875 0.3125 0  1 0.3125 0  0 0.34375 0  0.03125 0.34375 0  0.0625 0.34375 0  0.09375 0.34375 0  0.125 0.34375 0  0.15625 0.34375 0  0.1875 0.34375 0  0.21875 0.34375 0  0.25 0.34375 0  0.28125 0.34375 0  0.3125 0.34375 0  0.34375 0.34375 0  0.375 0.34375 0  0.40625 0.34375 0  0.4375 0.34375 0  0.46875 0.34375 0  0.5 0.34375 0  0.53125 0.34375 0  0.5625 0.34375 0  0.59375 0.34375 0  0.625 0.34375 0  0.65625 0.34375 0  0.6875 0.34375 0  0.71875 0.34375 0  0.75 0.34375 0  0.78125 0.34375 0  0.8125 0.34375 0  0.84375 0.34375 0  0.875 0.34375 0  0.90625 0.34375 0  0.9375 0.34375 0  0.96875 0.34375 0  1 0.34375 0  0 0.375 0  0.03125 0.375 0  0.0625 0.375 0  0.09375 0.375 0  0.125 0.375 0  0.15625 0.375 0  0.1875 0.375 0  0.21875 0.375 0  0.25 0.375 0  0.28125 0.375 0  0.3125 0.375 0  0.34375 0.375 0  0.375 0.375 0  0.40625 0.375 0  0.4375 0.375 0  0.46875 0.375 0  0.5 0.375 0  0.53125 0.375 0  0.5625 0.375 0  0.59375 0.375 0  0.625 0.375 0  0.65625 0.375 0  0.6875 0.375 0  0.71875 0.375 0  0.75 0.375 0  0.78125 0.375 0  0.8125 0.375 0  0.84375 0.375 0  0.875 0.375 0  0.90625 0.375 0  0.9375 0.375 0  0.96875 0.375 0  1 0.375 0  0 0.40625 0  0.03125 0.40625 0  0.0625 0.40625 0  0.09375 0.40625 0  0.125 0.40625 0  0.15625 0.40625 0  0.1875 0.40625 0  0.21875 0.40625 0  0.25 0.40625 0  0.28125 0.40625 0  0.3125 0.40625 0  0.34375 0.40625 0  0.375 0.40625 0  0.40625 0.40625 0  0.4375 0.40625 0  0.46875 0.40625 0  0.5 0.40625 0  0.53125 0.40625 0  0.5625 0.40625 0  0.59375 0.40625 0  0.625 0.40625 0  0.65625 0.40625 0  0.6875 0.40625 0  0.71875 0.40625 0  0.75 0.40625 0  0.78125 0.40625 0  0.8125 0.40625 0  0.84375 0.40625 0  0.875 0.40625 0  0.90625 0.40625 0  0.9375 0.40625 0  0.96875 0.40625 0  1 0.40625 0  0 0.4375 0  0.03125 0.4375 0  0.0625 0.4375 0  0.09375 0.4375 0  0.125 0.4375 0  0.15625 0.4375 0  0.1875 0.4375 0  0.21875 0.4375 0  0.25 0.4375 0  0.28125 0.4375 0  0.3125 0.4375 0  0.34375 0.4375 0  0.375 0.4375 0  0.40625 0.4375 0  0.4375 0.4375 0  0.46875 0.4375 0  0.5 0.4375 0  0.53125 0.4375 0  0.5625 0.4375 0  0.59375 0.4375 0  0.625 0.4375 0  0.65625 0.4375 0  0.6875 0.4375 0  0.71875 0.4375 0  0.75 0.4375 0  0.78125 0.4375 0  0.8125 0.4375 0  0.84375 0.4375 0  0.875 0.4375 0  0.90625 0.4375 0  0.9375 0.4375 0  0.96875 0.4375 0  1 0.4375 0  0 0.46875 0  0.03125 0.46875 0  0.0625 0.46875 0  0.09375 0.46875 0  0.125 0.46875 0  0.15625 0.46875 0  0.1875 0.46875 0  0.21875 0.46875 0  0.25 0.46875 0  0.28125 0.46875 0  0.3125 0.46875 0  0.34375 0.46875 0  0.375 0.46875 0  0.40625 0.46875 0  0.4375 0.46875 0  0.46875 0.46875 0  0.5 0.46875 0  0.53125 0.46875 0  0.5625 0.46875 0  0.59375 0.46875 0  0.625 0.46875 0  0.65625 0.46875 0  0.6875 0.46875 0  0.71875 0.46875 0  0.75 0.46875 0  0.78125 0.46875 0  0.8125 0.46875 0  0.84375 0.46875 0  0.875 0.46875 0  0.90625 0.46875 0  0.9375 0.46875 0  0.96875 0.46875 0  1 0.46875 0  0 0.5 0  0.03125 0.5 0  0.0625 0.5 0  0.09375 0.5 0  0.125 0.5 0  0.15625 0.5 0  0.1875 0.5 0  0.21875 0.5 0  0.25 0.5 0  0.28125 0.5 0  0.3125 0.5 0  0.34375 0.5 0  0.375 0.5 0  0.40625 0.5 0  0.4375 0.5 0  0.46875 0.5 0  0.5 0.5 0  0.53125 0.5 0  0.5625 0.5 0  0.59375 0.5 0  0.625 0.5 0  0.65625 0.5 0  0.6875 0.5 0  0.71875 0.5 0  0.75 0.5 0  0.78125 0.5 0  0.8125 0.5 0  0.84375 0.5 0  0.875 0.5 0  0.90625 0.5 0  0.9375 0.5 0  0.96875 0.5 0  1 0.5 0  0 0.53125 0  0.03125 0.53125 0  0.0625 0.53125 0  0.09375 0.53125 0  0.125 0.53125 0  0.15625 0.53125 0  0.1875 0.53125 0  0.21875 0.53125 0  0.25 0.53125 0  0.28125 0.53125 0  0.3125 0.53125 0  0.34375 0.53125 0  0.375 0.53125 0  0.40625 0.53125 0  0.4375 0.53125 0  0.46875 0.53125 0  0.5 0.53125 0  0.53125 0.53125 0  0.5625 0.53125 0  0.59375 0.53125 0  0.625 0.53125 0  0.65625 0.53125 0  0.6875 0.53125 0  0.71875 0.53125 0  0.75 0.53125 0  0.78125 0.531
[...]
<PointData  Scalars="phi"> 
<DataArray  type="Float64"  Name="phi"  format="ascii">0.0000000000000000e+00  0.0000000000000000e+00  0.0000000000000000e+00  0.0000000000000000e+00  0.0000000000000000e+00  0.0000000000000000e+00  0.0000000000000000e+00  0.0000000000000000e+00  0.0000000000000000e+00  0.0000000000000000e+00  0.0000000000000000e+00  0.0000000000000000e+00  0.0000000000000000e+00  0.0000000000000000e+00  0.0000000000000000e+00  0.0000000000000000e+00  0.0000000000000000e+00  0.0000000000000000e+00  0.0000000000000000e+00  0.0000000000000000e+00  0.0000000000000000e+00  0.0000000000000000e+00  0.0000000000000000e+00  0.0000000000000000e+00  0.0000000000000000e+00  0.0000000000000000e+00  0.0000000000000000e+00  0.0000000000000000e+00  0.0000000000000000e+00  0.0000000000000000e+00  0.0000000000000000e+00  0.0000000000000000e+00  0.0000000000000000e+00  0.0000000000000000e+00  -5.7679206537763710e-15  5.3331381144290754e-04  2.1013872102455195e-03  5.1533989530598550e-03  1.0064959280866721e-02  1.7119433336062431e-02  2.6492837406553373e-02  3.8243006203313605e-02  5.2303522255238474e-02  6.8482696161698581e-02  8.6467681849276973e-02  1.0583360671813241e-01  1.2605739842074171e-01  1.4653580473441535e-01  1.6660693730357296e-01  1.8557453013734157e-01  2.0273399496855782e-01  2.1739928209454637e-01  2.2892952000034777e-01  2.3675441136325071e-01  2.4039740694683226e-01  2.3949576099196385e-01  2.3381668931662081e-01  2.2326900081505396e-01  2.0790975046259769e-01  1.8794566443395627e-01  1.6372931718627501e-01  1.3575031198391091e-01  1.0462208912965044e-01  7.1065660092479346e-02  3.5893237930431546e-02  0.0000000000000000e+00  0.0000000000000000e+00  -5.3331381146565931e-04  -2.2449325818325810e-14  2.6016243534763409e-03  8.1701550474909505e-03  1.7458117724914159e-02  3.1034538253083374e-02  4.9254730673899100e-02  7.2238624670300650e-02  9.9858587933310289e-02  1.3173731089845087e-01  1.6725591939137444e-01  2.0557207619982648e-01  2.4564743899910199e-01  2.8628347352704309e-01  3.2616429110835604e-01  3.6390490102047185e-01  3.9810305140922153e-01  4.2739268585442930e-01  4.5049697198037353e-01  4.6627886658782791e-01  4.7378726860751469e-01  4.7229697382511526e-01  4.6134087825723324e-01  4.4073317254708366e-01  4.1058261872490076e-01  3.7129539415724711e-01  3.2356741925402754e-01  2.6836655693958805e-01  2.0690560002179187e-01  1.4060758339285687e-01  7.1065660092479513e-02  0.0000000000000000e+00  0.0000000000000000e+00  -2.1013872102789216e-03  -2.6016243535422747e-03  -4.8417691093723797e-14  7.0518323579585891e-03  1.9685267259308175e-02  3.8758671004447999e-02  6.4812158196210765e-02  9.8035128655200893e-02  1.3824796121793964e-01  1.8489869888669375e-01  2.3707496847768256e-01  2.9353077901960967e-01  3.5272725882029998e-01  4.1288584323083166e-01  4.7205193443172161e-01  5.2816663975888178e-01  5.7914387209369955e-01  6.2294987713427297e-01  6.5768214648025758e-01  6.8164468667712375e-01  6.9341674254563812e-01  6.9191231377911533e-01  6.7642814832680864e-01  6.4667833225564719e-01  6.0281410838974292e-01  5.4542812774572835e-01  4.7554294990668028e-01  3.9458424036909290e-01  3.0433973585841001e-01  2.0690560002179265e-01  1.0462208912965106e-01  0.0000000000000000e+00  0.0000000000000000e+00  -5.1533989531031008e-03  -8.1701550475763267e-03  -7.0518323580839766e-03  -8.1168527821679604e-14  1.4498002401768632e-02  3.7594665863422402e-02  7.0022309506402564e-02  1.1204995371866096e-01  1.6345889183942230e-01  2.2353805248839009e-01  2.9109947070148018e-01  3.6451339939238941e-01  4.4176182368884032e-01  5.2050841889350097e-01  5.9818234587852470e-01  6.7207273049861682e-01  7.3943024718515615e-01  7.9757193776007607e-01  8.4398525595586038e-01  8.7642734176468595e-01  8.9301569731896091e-01  8.9230675143796379e-01  8.7335925157426975e-01  8.3577999281611737e-01  7.7975006240954159e-01  7.0603051941449835e-01  6.1594721290914789e-01  5.1135523306812125e-01  3.9458424036909506e-01  2.6836655693959049e-01  1.3575031198391241e-01  0.0000000000000000e+00  0.0000000000000000e+00  -1.0064959280918787e-02  -1.7458117725016962e-02  -1.9685267259459134e-02  -1.4498002401964012e-02  -1.1752437075722215e-13  2.5260776788560618e-02  6.2217667856516598e-02  1.1123173903342899e-01  1.7206127553905648e-01  2.4385568797589022e-01  3.2517422290243075e-01  4.1402890305027040e-01  5.0795017600258674e-01  6.0407286129513305e-01  6.9923918875829782e-01  7.9011504625564311e-01  8.7331502885353363e-01  9.4553152425324871e-01  1.0036628949410951e+00  1.0449358328737828e+00  1.0670171672559838e+00  1.0681107924544881e+00  1.0470359366842656e+00  1.0032836916098780e+00  9.3704954130864571e-01  8.4924053366105157e-01  7.4145669061672481e-01  6.1594721290915233e-01  4.7554294990668622e-01  3.2356741925403282e-01  1.6372931718627801e-01  0.0000000000000000e+00  0.0000000000000000e+00  -1.7119433336122120e-02  -3.1034538253201200e-02  -3.8758671004620993e-02  -3.7594665863646202e-02  -2.5260776788829691e-02  -1.5389057526534521e-13  3.9331610479636001e-02  9.3201217856764496e-02  1.6136270516690912e-01  2.4284898905159572e-01  3.3599361024530272e-01  4.3848092764313479e-01  5.4742312801365334e-01  6.5946121574620231e-01  7.7088620702520483e-01  8.7777595684894083e-01  9.7614242614105085e-01  1.0620837739013482e+00  1.1319354523317831e+00  1.1824144993056733e+00  1.2107514619795479e+00  1.2148048387273680e+00  1.1931535765450505e+00  1.1451639825212063e+00  1.0710283688212998e+00  9.7177381275360220e-01  8.4924053366105956e-01  7.0603051941450989e-01  5.4542812774574001e-01  3.7129539415725643e-01  1.8794566443396141e-01  0.0000000000000000e+00  0.0000000000000000e+00  -2.6492837406619313e-02  -4.9254730674029253e-02  -6.4812158196401792e-02  -7.0022309506649588e-02  -6.2217667856813340e-02  -3.9331610479975111e-02  -1.8658207762424434e-13  5.6365334172974582e-02  1.2953424285119189e-01  2.1844884764762540e-01  3.2124761372309746e-01  4.3532214314849083e-01  5.5740465416404839e-01  6.8368291476770682e-01  8.0993832484894579e-01  9.3170193103960663e-01  1.0444224477748973e+00  1.1436398742651632e+00  1.2251580589624607e+00  1.2852095800029764e+00  1.3206065815297077e+00  1.3288717214302765e+00  1.3083441260616573e+00  1.2582561833826280e+00  1.1787781011795671e+00  1.0710283688213118e+00  9.3704954130866480e-01  7.7975006240956279e-01  6.0281410838976268e-01  4.1058261872491553e-01  2.0790975046260562e-01  0.0000000000000000e+00  0.0000000000000000e+00  -3.8243006203384347e-02  -7.2238624670440232e-02  -9.8035128655405659e-02  -1.1204995371892554e-01  -1.1123173903374656e-01  -9.3201217857126956e-02  -5.6365334173372847e-02  -2.1215883628186423e-13  7.5701883061302905e-02  1.6961917218851663e-01  2.7972861220197442e-01  4.0316750578151378e-01  5.3633066607036117e-01  6.7499805773161259e-01  8.1448833398178644e-01  9.4983246132944776e-01  1.0759608299546422e+00  1.1878967065904951e+00  1.2809486194008763e+00  1.3508942811428890e+00  1.3941489573700405e+00  1.4079117591361763e+00  1.3902841626330655e+00  1.3403560997432407e+00  1.2582561833826453e+00  1.1451639825212347e+00  1.0032836916099119e+00  8.3577999281615134e-01  6.4667833225567706e-01  4.4073317254710559e-01  2.2326900081506551e-01  0.0000000000000000e+00  0.0000000000000000e+00  -5.2303522255312471e-02  -9.9858587933456269e-02  -1.3824796121815369e-01  -1.6345889183969869e-01  -1.7206127553938777e-01  -1.6136270516728668e-01  -1.2953424285160603e-01  -7.5701883061743080e-02  -2.2768057594005121e-13  9.6415458557935166e-02  2.1139471157093509e-01  3.4186191391063908e-01  4.8392049590064035e-01  6.3299215400478093e-01  7.8398426169711577e-01  9.3147935734040765e-01  1.0699394962014628e+00  1.1939176601551265e+00  1.2982681241717207e+00  1.3783476948367126e+00  1.4302000624550506e+00  1.4507161323404449e+00  1.4377640987984674e+00  1.3902841626330886e+00  1.3083441260616966e+00  1.1931535765451002e+00  1.0470359366843178e+00  8.7335925157431937e-01  6.7642814832685072e-01  4.6134087825726355e-01  2.3381668931663666e-01  0.0000000000000000e+00  0.0000000000000000e+00  -6.8482696161774298e-02  -1.3173731089860022e-01  -1.8489869888691252e-01  -2.2353805248867231e-01  -2.4385568797622809e-01  -2.4284898905198016e-01  -2.1844884764804606e-01  -1.6961917218896244e-01  -9.6415458558394840e-02  -2.3102300373986124e-13  1.1738701156244870e-01  2.5249953326365793e-01  4.0119823645876396e-01  5.5859938495506922e-01  7.1925440919283323e-01  8.7735336095297489e-01  1.0269444955291038e+00  1.1621615875359201e+00  1.2774502674273318e+00  1.3677846807966185e+00  1.4288661212161311e+00  1.4572959565057486e+00  1.4507161323404749e+00  1.4079117591362285e+00  1.3288717214303434e+00  1.2148048387274422e+00  1.0681107924545625e+00  8.9230675143803195e-01  6.9191231377917184e-01  4.7229697382515545e-01  2.3949576099198466e-01  0.0000000000000000e+00  0.0000000000000000e+00  -8.6467681849352898e-02  -1.6725591939152412e-01  -2.3707496847790172e-01  -2.9109947070176251e-01  -3.2517422290276832e-01  -3.3599361024568586e-01  -3.2124761372351562e-01  -2.7972861220241607e-01  -2.1139471157138850e-01  -1.1738701156290215e-01  -2.2106759983519902e-13  1.3739392376106740e-01  2.9046301928757778e-01  4.5407342254807881e-01  6.2247906305772915e-01  7.8953706009195646e-01  9.4894038045926365e-01  1.0944588581720427e+00  1.2201793353299140e+00  1.3207356968902388e+00  1.3915199393955964e+00  1.4288661212161675e+00  1.4302000624551163e+00  1.3941489573701271e+00  1.3206065815298067e+00  1.2107514619796509e+00  1.0670171672560835e+00  8.9301569731904995e-01  6.9341674254571073e-01  4.7378726860756593e-01  2.4039740694685860e-01  0.0000000000000000e+00  0.0000000000000000e+00  -1.0583360671820713e-01  -2.0557207619997370e-01  -2.9353077901982488e-01  -3.6451339939266636e-01  -4.1402890305060097e-01  -4.3848092764350904e-01  -4.3532214314889783e-01  -4.0316750578194194e-01  -3.4186191391107634e-01  -2.5249953326409236e-01  -1.3739392376148751e-01  -1.9756542924868076e-13  1.5520928128003794e-01  3.2290686204896701e-01  4.9710993339357057e-01  6.7140514051554634e-01  8.3919204044462981e-01  9.9393549330886932e-01  1.1294173080186072e+00  1.2399774745015821e+00  1.3207356968902815e+00  1.3677846807966971e+00  1.3783476948368190e+00  1.3508942811430138e+00  1.2852095800031109e+00  1.1824144993058086e+00  1.0449358328739105e+00  8.7642734176479808e-01  6.8164468667721412e-01  4.6627886658789108e-01  2.3675441136328315e-01  0.0000000000000000e+00  0.0000000000000000e+00  -1.2605739842081390e-01  -2.4564743899924418e-01  -3.5272725882050748e-01  -4.4176182368910683e-01  -5.0795017600290415e-01  -5.4742312801401150e-01  -5.5740465416443641e-01  -5.3633066607076729e-01  -4.8392049590105246e-01  -4.0119823645917008e-01  -2.9046301928796647e-01  -1.5520928128039854e-01  -1.6152862709186945e-13  1.6970230598424618e-01  3.4774038274624225e-01  5.2749503707880918e-01  7.0213702038106907e-01  8.6488835195678315e-01  1.0092830575818637e+00  1.1294173080186558e+00  1.2201793353300043e+00  1.2774502674274566e+00  1.2982681241718712e+00  1.2809486194010424e+00  1.2251580589626332e+00  1.1319354523319527e+00  1.0036628949412518e+00  8.4398525595599672e-01  6.5768214648036638e-01  4.5049697198044925e-01  2.2892952000038663e-01  0.0000000000000000e+00  0.0000000000000000e+00  -1.4653580473448380e-01  -2.8628347352717765e-01  -4.1288584323102806e-01  -5.2050841889375277e-01  -6.0407286129543192e-01  -6.5946121574653838e-01  -6.8368291476806919e-01  -6.7499805773198951e-01  -6.3299215400516040e-01  -5.5859938495543915e-01  -4.5407342254842809e-01  -3.2290686204928515e-01  -1.6970230598452402e-01  -1.1506877156167102e-13  1.7993140297948046e-01  3.6333295018411987e-01  5.4321325096354167e-01  7.1261620894643773e-01  8.6488835195683689e-01  9.9393549330897035e-01  1.0944588581721848e+00  1.1621615875360947e+00  1.1939176601553236e+00  1.1878967065907049e+00  1.1436398742653755e+00  1.0620837739015527e+00  9.4553152425343601e-01  7.9757193776023727e-01  6.2294987713440109e-01  4.2739268585451790e-01  2.1739928209459167e-01  0.0000000000000000e+00  0.0000000000000000e+00  -1.6660693730363668e-01  -3.2616429110848133e-01  -4.7205193443190407e-01  -5.9818234587875796e-01  -6.9923918875857383e-01  -7.7088620702551358e-01  -8.0993832484927664e-01  -8.1448833398212805e-01  -7.8398426169745605e-01  -7.1925440919316053e-01  -6.2247906305803280e-01  -4.9710993339384024e-01  -3.4774038274646907e-01  -1.7993140297965754e-01  -6.1209327850417956e-14  1.8522190651387022e-01  3.6864882504312613e-01  5.4321325096359818e-01  7.0213702038117853e-01  8.3919204044478546e-01  9.4894038045945828e-01  1.0269444955293283e+00  1.0699394962017075e+00  1.0759608299548957e+00  1.0444224477751494e+00  9.7614242614129043e-01  8.7331502885375079e-01  7.3943024718534178e-01  5.7914387209384599e-01  3.9810305140932267e-01  2.0273399496860933e-01  0.0000000000000000e+00  0.0000000000000000e+00  -1.8557453013739991e-01  -3.6390490102058637e-01  -5.2816663975904810e-01  -6.7207273049882876e-01  -7.9011504625589257e-01  -8.7777595684921850e-01  -9.3170193103990218e-01  -9.4983246132974952e-01  -9.3147935734070431e-01  -8.7735336095325533e-01  -7.8953706009221003e-01  -6.7140514051576328e-01  -5.2749503707898104e-01  -3.6333295018424050e-01  -1.8522190651393503e-01  -3.3244795472197856e-15  1.8522190651392842e-01  3.6333295018423406e-01  5.2749503707897483e-01  6.7140514051575684e-01  7.8953706009220359e-01  8.7735336095324912e-01  9.3147935734069864e-01  9.4983246132974419e-01  9.3170193103989729e-01  8.7777595684921417e-01  7.9011504625588880e-01  6.7207273049882588e-01  5.2816663975904588e-01  3.6390490102058493e-01  1.8557453013739914e-01  0.0000000000000000e+00  0.0000000000000000e+00  -2.0273399496861016e-01  -3.9810305140932423e-01  -5.7914387209384832e-01  -7.3943024718534489e-01  -8.7331502885375456e-01  -9.7614242614129498e-01  -1.0444224477751547e+00  -1.0759608299549015e+00  -1.0699394962017137e+00  -1.0269444955293345e+00  -9.4894038045946449e-01  -8.3919204044479168e-01  -7.0213702038118442e-01  -5.4321325096360451e-01  -3.6864882504313268e-01  -1.8522190651387690e-01  5.4522274284151862e-14  1.7993140297965093e-01  3.4774038274646246e-01  4.9710993339383347e-01  6.2247906305802614e-01  7.1925440919315431e-01  7.8398426169745061e-01  8.1448833398212284e-01  8.0993832484927197e-01  7.7088620702550947e-01  6.9923918875857027e-01  5.9818234587875507e-01  4.7205193443190180e-01  3.2616429110847989e-01  1.6660693730363596e-01  0.0000000000000000e+00  0.0000000000000000e+00  -2.1739928209459247e-01  -4.2739268585451951e-01  -6.2294987713440320e-01  -7.9757193776024049e-01  -9.4553152425344011e-01  -1.0620837739015574e+00  -1.1436398742653808e+00  -1.1878967065907107e+00  -1.1939176601553296e+00  -1.1621615875361007e+00  -1.0944588581721906e+00  -9.9393549330897624e-01  -8.6488835195684244e-01  -7.1261620894644384e-01  -5.4321325096354800e-01  -3.6333295018412654e-01  -1.7993140297948701e-01  1.0857873621118693e-13  1.6970230598451752e-01  3.2290686204927860e-01  4.5407342254842165e-01  5.5859938495543304e-01  6.3299215400515485e-01  6.7499805773198429e-01  6.8368291476806431e-01  6.5946121574653416e-01  6.0407286129542848e-01  5.2050841889374988e-01  4.1288584323102595e-01  2.8628347352717626e-01  1.4653580473448308e-01  0.0000000000000000e+00  0.0000000000000000e+00  -2.2892952000038747e-01  -4.5049697198045091e-01  -6.5768214648036882e-01  -8.4398525595600005e-01  -1.0036628949412563e+00  -1.1319354523319574e+00  -1.2251580589626387e+00  -1.2809486194010486e+00  -1.2982681241718770e+00  -1.2774502674274630e+00  -1.2201793353300101e+00  -1.1294173080186614e+00  -1.0092830575818694e+00  -8.6488835195678937e-01  -7.0213702038107528e-01  -5.2749503707881562e-01  -3.4774038274624847e-01  -1.6970230598425240e-01  1.5524493034140253e-13  1.5520928128039210e-01  2.9046301928796020e-01  4.0119823645916414e-01  4.8392049590104691e-01  5.3633066607076219e-01  5.5740465416443175e-01  5.4742312801400739e-01  5.0795017600290060e-01  4.4176182368910399e-01  3.5272725882050537e-01  2.4564743899924268e-01  1.2605739842081315e-01  0.0000000000000000e+00  0.0000000000000000e+00  -2.3675441136328401e-01  -4.6627886658789280e-01  -6.8164468667721656e-01  -8.7642734176480142e-01  -1.0449358328739144e+00  -1.1824144993058132e+00  -1.2852095800031162e+00  -1.3508942811430189e+00  -1.3783476948368238e+00  -1.3677846807967025e+00  -1.3207356968902868e+00  -1.2399774745015875e+00  -1.1294173080186125e+00  -9.9393549330887476e-01  -8.3919204044463536e-01  -6.7140514051555211e-01  -4.9710993339357623e-01  -3.2290686204897284e-01  -1.5520928128004385e-01  1.9152643422468257e-13  1.3739392376148160e-01  2.5249953326408675e-01  3.4186191391107112e-01  4.0316750578193705e-01  4.3532214314889339e-01  4.3848092764350499e-01  4.1402890305059747e-01  3.6451339939266358e-01  2.9353077901982283e-01  2.0557207619997225e-01  1.0583360671820642e-01  0.0000000000000000e+00  0.0000000000000000e+00  -2.4039740694685952e-01  -4.7378726860756770e-01  -6.9341674254571339e-01  -8.9301569731905350e-01  -1.0670171672560875e+00  -1.2107514619796556e+00  -1.3206065815298116e+00  -1.3941489573701318e+00  -1.4302000624551208e+00  -1.4288661212161724e+00  -1.3915199393956010e+00  -1.3207356968902433e+00  -1.2201793353299188e+00  -1.0944588581720478e+00  -9.4894038045926865e-01  -7.8953706009196156e-01  -6.2247906305773415e-01  -4.5407342254808414e-01  -2.9046301928758322e-01  -1.3739392376107301e-01  2.1553115343236613e-13  1.1738701156289685e-01  2.1139471157138356e-01  2.7972861220241158e-01  3.2124761372351135e-01  3.3599361024568208e-01  3.2517422290276510e-01  2.9109947070175984e-01  2.3707496847789969e-01  1.6725591939152279e-01  8.6467681849352232e-02  0.0000000000000000e+00  0.0000000000000000e+00  -2.3949576099198555e-01  -4.7229697382515712e-01  -6.9191231377917450e-01  -8.9230675143803539e-01  -1.0681107924545667e+00  -1.2148048387274466e+00  -1.3288717214303483e+00  -1.4079117591362329e+00  -1.4507161323404789e+00  -1.4572959565057531e+00  -1.4288661212161355e+00  -1.3677846807966225e+00  -1.2774502674273358e+00  -1.1621615875359246e+00  -1.0269444955291083e+00  -8.7735336095297933e-01  -7.1925440919283767e-01  -5.5859938495507400e-01  -4.0119823645876890e-01  -2.5249953326366303e-01  -1.1738701156245375e-01  2.2617257639513066e-13  9.6415458558390246e-02  1.6961917218895825e-01  2.1844884764804212e-01  2.4284898905197666e-01  2.4385568797622512e-01  2.2353805248866987e-01  1.8489869888691068e-01  1.3173731089859897e-01  6.8482696161773687e-02  0.0000000000000000e+00  0.0000000000000000e+00  -2.3381668931663746e-01  -4.6134087825726522e-01  -6.7642814832685327e-01  -8.7335925157432259e-01  -1.0470359366843218e+00  -1.1931535765451042e+00  -1.3083441260617013e+00  -1.3902841626330926e+00  -1.4377640987984712e+00  -1.4507161323404489e+00  -1.4302000624550546e+00  -1.3783476948367166e+00  -1.2982681241717244e+00  -1.1939176601551300e+00  -1.0699394962014668e+00  -9.3147935734041143e-01  -7.8398426169711977e-01  -6.3299215400478526e-01  -4.8392049590064484e-01  -3.4186191391064374e-01  -2.1139471157093964e-01  -9.6415458557939579e-02  2.2350743823398517e-13  7.5701883061739167e-02  1.2953424285160242e-01  1.6136270516728352e-01  1.7206127553938505e-01  1.6345889183969642e-01  1.3824796121815197e-01  9.9858587933455173e-02  5.2303522255311909e-02  0.0000000000000000e+00  0.0000000000000000e+00  -2.2326900081506629e-01  -4.4073317254710703e-01  -6.4667833225567917e-01  -8.3577999281615423e-01  -1.0032836916099153e+00  -1.1451639825212383e+00  -1.2582561833826491e+00  -1.3403560997432442e+00  -1.3902841626330689e+00  -1.4079117591361796e+00  -1.3941489573700436e+00  -1.3508942811428921e+00  -1.2809486194008799e+00  -1.1878967065904980e+00  -1.0759608299546450e+00  -9.4983246132945076e-01  -8.1448833398178966e-01  -6.7499805773161614e-01  -5.3633066607036506e-01  -4.0316750578151783e-01  -2.7972861220197842e-01  -1.6961917218852052e-01  -7.5701883061306652e-02  2.0861499521975314e-13  5.636533417336959