<?xml version="1.0"?>
<VTKFile type="UnstructuredGrid"  version="0.1"  >
<UnstructuredGrid>
<Piece  NumberOfPoints="1089" NumberOfCells="2048">
<Points>
<DataArray  type="Float64"  NumberOfComponents="3"  format="ascii">0 0 0  0.03125 0 0  0.0625 0 0  0.09375 0 0  0.125 0 0  0.15625 0 0  0.1875 0 0  0.21875 0 0  0.25 0 0  0.28125 0 0  0.3125 0 0  0.34375 0 0  0.375 0 0  0.40625 0 0  0.4375 0 0  0.46875 0 0  0.5 0 0  0.53125 0 0  0.5625 0 0  0.59375 0 0  0.625 0 0  0.65625 0 0  0.6875 0 0  0.71875 0 0  0.75 0 0  0.78125 0 0  0.8125 0 0  0.84375 0 0  0.875 0 0  0.90625 0 0  0.9375 0 0  0.96875 0 0  1 0 0  0 0.03125 0  0.03125 0.03125 0  0.0625 0.03125 0  0.09375 0.03125 0  0.125 0.03125 0  0.15625 0.03125 0  0.1875 0.03125 0  0.21875 0.03125 0  0.25 0.03125 0  0.28125 0.03125 0  0.3125 0.03125 0  0.34375 0.03125 0  0.375 0.03125 0  0.40625 0.03125 0  0.4375 0.03125 0  0.46875 0.03125 0  0.5 0.03125 0  0.53125 0.03125 0  0.5625 0.03125 0  0.59375 0.03125 0  0.625 0.03125 0  0.65625 0.03125 0  0.6875 0.03125 0  0.71875 0.03125 0  0.75 0.03125 0  0.78125 0.03125 0  0.8125 0.03125 0  0.84375 0.03125 0  0.875 0.03125 0  0.90625 0.03125 0  0.9375 0.03125 0  0.96875 0.03125 0  1 0.03125 0  0 0.0625 0  0.03125 0.0625 0  0.0625 0.0625 0  0.09375 0.0625 0  0.125 0.0625 0  0.15625 0.0625 0  0.1875 0.0625 0  0.21875 0.0625 0  0.25 0.0625 0  0.28125 0.0625 0  0.3125 0.0625 0  0.34375 0.0625 0  0.375 0.0625 0  0.40625 0.0625 0  0.4375 0.0625 0  0.46875 0.0625 0  0.5 0.0625 0  0.53125 0.0625 0  0.5625 0.0625 0  0.59375 0.0625 0  0.625 0.0625 0  0.65625 0.0625 0  0.6875 0.0625 0  0.71875 0.0625 0  0.75 0.0625 0  0.78125 0.0625 0  0.8125 0.0625 0  0.84375 0.0625 0  0.875 0.0625 0  0.90625 0.0625 0  0.9375 0.0625 0  0.96875 0.0625 0  1 0.0625 0  0 0.09375 0  0.03125 0.09375 0  0.0625 0.09375 0  0.09375 0.09375 0  0.125 0.09375 0  0.15625 0.09375 0  0.1875 0.09375 0  0.21875 0.09375 0  0.25 0.09375 0  0.28125 0.09375 0  0.3125 0.09375 0  0.34375 0.09375 0  0.375 0.09375 0  0.40625 0.09375 0  0.4375 0.09375 0  0.46875 0.09375 0  0.5 0.09375 0  0.53125 0.09375 0  0.5625 0.09375 0  0.59375 0.09375 0  0.625 0.09375 0  0.65625 0.09375 0  0.6875 0.09375 0  0.71875 0.09375 0  0.75 0.09375 0  0.78125 0.09375 0  0.8125 0.09375 0  0.84375 0.09375 0  0.875 0.09375 0  0.90625 0.09375 0  0.9375 0.09375 0  0.96875 0.09375 0  1 0.09375 0  0 0.125 0  0.03125 0.125 0  0.0625 0.125 0  0.09375 0.125 0  0.125 0.125 0  0.15625 0.125 0  0.1875 0.125 0  0.21875 0.125 0  0.25 0.125 0  0.28125 0.125 0  0.3125 0.125 0  0.34375 0.125 0  0.375 0.125 0  0.40625 0.125 0  0.4375 0.125 0  0.46875 0.125 0  0.5 0.125 0  0.53125 0.125 0  0.5625 0.125 0  0.59375 0.125 0  0.625 0.125 0  0.65625 0.125 0  0.6875 0.125 0  0.71875 0.125 0  0.75 0.125 0  0.78125 0.125 0  0.8125 0.125 0  0.84375 0.125 0  0.875 0.125 0  0.90625 0.125 0  0.9375 0.125 0  0.96875 0.125 0  1 0.125 0  0 0.15625 0  0.03125 0.15625 0  0.0625 0.15625 0  0.09375 0.15625 0  0.125 0.15625 0  0.15625 0.15625 0  0.1875 0.15625 0  0.21875 0.15625 0  0.25 0.15625 0  0.28125 0.15625 0  0.3125 0.15625 0  0.34375 0.15625 0  0.375 0.15625 0  0.40625 0.15625 0  0.4375 0.15625 0  0.46875 0.15625 0  0.5 0.15625 0  0.53125 0.15625 0  0.5625 0.15625 0  0.59375 0.15625 0  0.625 0.15625 0  0.65625 0.15625 0  0.6875 0.15625 0  0.71875 0.15625 0  0.75 0.15625 0  0.78125 0.15625 0  0.8125 0.15625 0  0.84375 0.15625 0  0.875 0.15625 0  0.90625 0.15625 0  0.9375 0.15625 0  0.96875 0.15625 0  1 0.15625 0  0 0.1875 0  0.03125 0.1875 0  0.0625 0.1875 0  0.09375 0.1875 0  0.125 0.1875 0  0.15625 0.1875 0  0.1875 0.1875 0  0.21875 0.1875 0  0.25 0.1875 0  0.28125 0.1875 0  0.3125 0.1875 0  0.34375 0.1875 0  0.375 0.1875 0  0.40625 0.1875 0  0.4375 0.1875 0  0.46875 0.1875 0  0.5 0.1875 0  0.53125 0.1875 0  0.5625 0.1875 0  0.59375 0.1875 0  0.625 0.1875 0  0.65625 0.1875 0  0.6875 0.1875 0  0.71875 0.1875 0  0.75 0.1875 0  0.78125 0.1875 0  0.8125 0.1875 0  0.84375 0.1875 0  0.875 0.1875 0  0.90625 0.1875 0  0.9375 0.1875 0  0.96875 0.1875 0  1 0.1875 0  0 0.21875 0  0.03125 0.21875 0  0.0625 0.21875 0  0.09375 0.21875 0  0.125 0.21875 0  0.15625 0.21875 0  0.1875 0.21875 0  0.21875 0.21875 0  0.25 0.21875 0  0.28125 0.21875 0  0.3125 0.21875 0  0.34375 0.21875 0  0.375 0.21875 0  0.40625 0.21875 0  0.4375 0.21875 0  0.46875 0.21875 0  0.5 0.21875 0  0.53125 0.21875 0  0.5625 0.21875 0  0.59375 0.21875 0  0.625 0.21875 0  0.65625 0.21875 0  0.6875 0.21875 0  0.71875 0.21875 0  0.75 0.21875 0  0.78125 0.21875 0  0.8125 0.21875 0  0.84375 0.21875 0  0.875 0.21875 0  0.90625 0.21875 0  0.9375 0.21875 0  0.96875 0.21875 0  1 0.21875 0  0 0.25 0  0.03125 0.25 0  0.0625 0.25 0  0.09375 0.25 0  0.125 0.25 0  0.15625 0.25 0  0.1875 0.25 0  0.21875 0.25 0  0.25 0.25 0  0.28125 0.25 0  0.3125 0.25 0  0.34375 0.25 0  0.375 0.25 0  0.40625 0.25 0  0.4375 0.25 0  0.46875 0.25 0  0.5 0.25 0  0.53125 0.25 0  0.5625 0.25 0  0.59375 0.25 0  0.625 0.25 0  0.65625 0.25 0  0.6875 0.25 0  0.71875 0.25 0  0.75 0.25 0  0.78125 0.25 0  0.8125 0.25 0  0.84375 0.25 0  0.875 0.25 0  0.90625 0.25 0  0.9375 0.25 0  0.96875 0.25 0  1 0.25 0  0 0.28125 0  0.03125 0.28125 0  0.0625 0.28125 0  0.09375 0.28125 0  0.125 0.28125 0  0.15625 0.28125 0  0.1875 0.28125 0  0.21875 0.28125 0  0.25 0.28125 0  0.28125 0.28125 0  0.3125 0.28125 0  0.34375 0.28125 0  0.375 0.28125 0  0.40625 0.28125 0  0.4375 0.28125 0  0.46875 0.28125 0  0.5 0.28125 0  0.53125 0.28125 0  0.5625 0.28125 0  0.59375 0.28125 0  0.625 0.28125 0  0.65625 0.28125 0  0.6875 0.28125 0  0.71875 0.28125 0  0.75 0.28125 0  0.78125 0.28125 0  0.8125 0.28125 0  0.84375 0.28125 0  0.875 0.28125 0  0.90625 0.28125 0  0.9375 0.28125 0  0.96875 0.28125 0  1 0.28125 0  0 0.3125 0  0.03125 0.3125 0  0.0625 0.3125 0  0.09375 0.3125 0  0.125 0.3125 0  0.15625 0.3125 0  0.1875 0.3125 0  0.21875 0.3125 0  0.25 0.3125 0  0.28125 0.3125 0  0.3125 0.3125 0  0.34375 0.3125 0  0.375 0.3125 0  0.40625 0.3125 0  0.4375 0.3125 0  0.46875 0.3125 0  0.5 0.3125 0  0.53125 0.3125 0  0.5625 0.3125 0  0.59375 0.3125 0  0.625 0.3125 0  0.65625 0.3125 0  0.6875 0.3125 0  0.71875 0.3125 0  0.75 0.3125 0  0.78125 0.3125 0  0.8125 0.3125 0  0.84375 0.3125 0  0.875 0.3125 0  0.90625 0.3125 0  0.9375 0.3125 0  0.96875 0.3125 0  1 0.3125 0  0 0.34375 0  0.03125 0.34375 0  0.0625 0.34375 0  0.09375 0.34375 0  0.125 0.34375 0  0.15625 0.34375 0  0.1875 0.34375 0  0.21875 0.34375 0  0.25 0.34375 0  0.28125 0.34375 0  0.3125 0.34375 0  0.34375 0.34375 0  0.375 0.34375 0  0.40625 0.34375 0  0.4375 0.34375 0  0.46875 0.34375 0  0.5 0.34375 0  0.53125 0.34375 0  0.5625 0.34375 0  0.59375 0.34375 0  0.625 0.34375 0  0.65625 0.34375 0  0.6875 0.34375 0  0.71875 0.34375 0  0.75 0.34375 0  0.78125 0.34375 0  0.8125 0.34375 0  0.84375 0.34375 0  0.875 0.34375 0  0.90625 0.34375 0  0.9375 0.34375 0  0.96875 0.34375 0  1 0.34375 0  0 0.375 0  0.03125 0.375 0  0.0625 0.375 0  0.09375 0.375 0  0.125 0.375 0  0.15625 0.375 0  0.1875 0.375 0  0.21875 0.375 0  0.25 0.375 0  0.28125 0.375 0  0.3125 0.375 0  0.34375 0.375 0  0.375 0.375 0  0.40625 0.375 0  0.4375 0.375 0  0.46875 0.375 0  0.5 0.375 0  0.53125 0.375 0  0.5625 0.375 0  0.59375 0.375 0  0.625 0.375 0  0.65625 0.375 0  0.6875 0.375 0  0.71875 0.375 0  0.75 0.375 0  0.78125 0.375 0  0.8125 0.375 0  0.84375 0.375 0  0.875 0.375 0  0.90625 0.375 0  0.9375 0.375 0  0.96875 0.375 0  1 0.375 0  0 0.40625 0  0.03125 0.40625 0  0.0625 0.40625 0  0.09375 0.40625 0  0.125 0.40625 0  0.15625 0.40625 0  0.1875 0.40625 0  0.21875 0.40625 0  0.25 0.40625 0  0.28125 0.40625 0  0.3125 0.40625 0  0.34375 0.40625 0  0.375 0.40625 0  0.40625 0.40625 0  0.4375 0.40625 0  0.46875 0.40625 0  0.5 0.40625 0  0.53125 0.40625 0  0.5625 0.40625 0  0.59375 0.40625 0  0.625 0.40625 0  0.65625 0.40625 0  0.6875 0.40625 0  0.71875 0.40625 0  0.75 0.40625 0  0.78125 0.40625 0  0.8125 0.40625 0  0.84375 0.40625 0  0.875 0.40625 0  0.90625 0.40625 0  0.9375 0.40625 0  0.96875 0.40625 0  1 0.40625 0  0 0.4375 0  0.03125 0.4375 0  0.0625 0.4375 0  0.09375 0.4375 0  0.125 0.4375 0  0.15625 0.4375 0  0.1875 0.4375 0  0.21875 0.4375 0  0.25 0.4375 0  0.28125 0.4375 0  0.3125 0.4375 0  0.34375 0.4375 0  0.375 0.4375 0  0.40625 0.4375 0  0.4375 0.4375 0  0.46875 0.4375 0  0.5 0.4375 0  0.53125 0.4375 0  0.5625 0.4375 0  0.59375 0.4375 0  0.625 0.4375 0  0.65625 0.4375 0  0.6875 0.4375 0  0.71875 0.4375 0  0.75 0.4375 0  0.78125 0.4375 0  0.8125 0.4375 0  0.84375 0.4375 0  0.875 0.4375 0  0.90625 0.4375 0  0.9375 0.4375 0  0.96875 0.4375 0  1 0.4375 0  0 0.46875 0  0.03125 0.46875 0  0.0625 0.46875 0  0.09375 0.46875 0  0.125 0.46875 0  0.15625 0.46875 0  0.1875 0.46875 0  0.21875 0.46875 0  0.25 0.46875 0  0.28125 0.46875 0  0.3125 0.46875 0  0.34375 0.46875 0  0.375 0.46875 0  0.40625 0.46875 0  0.4375 0.46875 0  0.46875 0.46875 0  0.5 0.46875 0  0.53125 0.46875 0  0.5625 0.46875 0  0.59375 0.46875 0  0.625 0.46875 0  0.65625 0.46875 0  0.6875 0.46875 0  0.71875 0.46875 0  0.75 0.46875 0  0.78125 0.46875 0  0.8125 0.46875 0  0.84375 0.46875 0  0.875 0.46875 0  0.90625 0.46875 0  0.9375 0.46875 0  0.96875 0.46875 0  1 0.46875 0  0 0.5 0  0.03125 0.5 0  0.0625 0.5 0  0.09375 0.5 0  0.125 0.5 0  0.15625 0.5 0  0.1875 0.5 0  0.21875 0.5 0  0.25 0.5 0  0.28125 0.5 0  0.3125 0.5 0  0.34375 0.5 0  0.375 0.5 0  0.40625 0.5 0  0.4375 0.5 0  0.46875 0.5 0  0.5 0.5 0  0.53125 0.5 0  0.5625 0.5 0  0.59375 0.5 0  0.625 0.5 0  0.65625 0.5 0  0.6875 0.5 0  0.71875 0.5 0  0.75 0.5 0  0.78125 0.5 0  0.8125 0.5 0  0.84375 0.5 0  0.875 0.5 0  0.90625 0.5 0  0.9375 0.5 0  0.96875 0.5 0  1 0.5 0  0 0.53125 0  0.03125 0.53125 0  0.0625 0.53125 0  0.09375 0.53125 0  0.125 0.53125 0  0.15625 0.53125 0  0.1875 0.53125 0  0.21875 0.53125 0  0.25 0.53125 0  0.28125 0.53125 0  0.3125 0.53125 0  0.34375 0.53125 0  0.375 0.53125 0  0.40625 0.53125 0  0.4375 0.53125 0  0.46875 0.53125 0  0.5 0.53125 0  0.53125 0.53125 0  0.5625 0.53125 0  0.59375 0.53125 0  0.625 0.53125 0  0.65625 0.53125 0  0.6875 0.53125 0  0.71875 0.53125 0  0.75 0.53125 0  0.78125 0.531
[...]
<PointData  Scalars="phi"> 
<DataArray  type="Float64"  Name="phi"  format="ascii">0.0000000000000000e+00  0.0000000000000000e+00  0.0000000000000000e+00  0.0000000000000000e+00  0.0000000000000000e+00  0.0000000000000000e+00  0.0000000000000000e+00  0.0000000000000000e+00  0.0000000000000000e+00  0.0000000000000000e+00  0.0000000000000000e+00  0.0000000000000000e+00  0.0000000000000000e+00  0.0000000000000000e+00  0.0000000000000000e+00  0.0000000000000000e+00  0.0000000000000000e+00  0.0000000000000000e+00  0.0000000000000000e+00  0.0000000000000000e+00  0.0000000000000000e+00  0.0000000000000000e+00  0.0000000000000000e+00  0.0000000000000000e+00  0.0000000000000000e+00  0.0000000000000000e+00  0.0000000000000000e+00  0.0000000000000000e+00  0.0000000000000000e+00  0.0000000000000000e+00  0.0000000000000000e+00  0.0000000000000000e+00  0.0000000000000000e+00  0.0000000000000000e+00  2.1224971680983717e-04  4.1507882029231469e-04  6.0122887167012777e-04  7.6380375236113321e-04  8.9669208045368336e-04  9.9485964748435591e-04  1.0545669524876329e-03  1.0735251302966165e-03  1.0509916544835640e-03  9.8780484235591885e-04  8.8635684482213275e-04  7.5050648489031905e-04  5.8543532337185342e-04  3.9745238216645838e-04  1.9375488110302472e-04  -1.7845966482139609e-05  -2.2922368429012627e-04  -4.3224838728864824e-04  -6.1909979839298857e-04  -7.8256936436648891e-04  -9.1633977294054529e-04  -1.0152309983374077e-03  -1.0754032635828562e-03  -1.0945089673081798e-03  -1.0717876339884336e-03  -1.0081002679419734e-03  -9.0590211635746911e-04  -7.6915588867508425e-04  -6.0319143246278964e-04  -4.1452447556224035e-04  -2.1066247228709620e-04  0.0000000000000000e+00  0.0000000000000000e+00  4.1507882029231480e-04  8.1257115387961434e-04  1.1777167544212990e-03  1.4968188229652359e-03  1.7578195777455115e-03  1.9508048656566661e-03  2.0684099298935374e-03  2.1061186079804435e-03  2.0624490841881478e-03  1.9390213101418401e-03  1.7405044372496663e-03  1.4744465245452646e-03  1.1509929564393177e-03  7.8250411525182095e-04  3.8308666939153031e-04  -3.1943826855169609e-05  -4.4664862346124255e-04  -8.4507740660354008e-04  -1.2118824158593739e-03  -1.5329113777898561e-03  -1.7957562910157405e-03  -1.9902367032845420e-03  -2.1087985793437338e-03  -2.1468130912003589e-03  -2.1027635682309810e-03  -1.9783133123557318e-03  -1.7782519155542795e-03  -1.5103230721435644e-03  -1.1849427366293279e-03  -8.1482305336571582e-04  -4.1452447556224040e-04  0.0000000000000000e+00  0.0000000000000000e+00  6.0122887167012766e-04  1.1777167544212990e-03  1.7077154727401819e-03  2.1711802638607501e-03  2.5505169683416999e-03  2.8312734196994866e-03  3.0027102995291931e-03  3.0582280203981507e-03  2.9956337701711484e-03  2.8172390003850371e-03  2.5297837653821425e-03  2.1441906212292007e-03  1.6751571138600640e-03  1.1406019750840647e-03  5.6098574756826734e-04  -4.1468560198903924e-05  -6.4362523614064501e-04  -1.2223236358940991e-03  -1.7552699220822943e-03  -2.2218983986155554e-03  -2.6041690651464567e-03  -2.8872703223069567e-03  -3.0601992984929096e-03  -3.1161969237992544e-03  -3.0530204848017548e-03  -2.8730427597115802e-03  -2.5831737338482697e-03  -2.1946080737882123e-03  -1.7224086471113590e-03  -1.1849427366293279e-03  -6.0319143246278964e-04  0.0000000000000000e+00  0.0000000000000000e+00  7.6380375236113310e-04  1.4968188229652359e-03  2.1711802638607501e-03  2.7612518947406402e-03  3.2445528804849024e-03  3.6026198849721269e-03  3.8217228753381098e-03  3.8934032009892944e-03  3.8148116703724862e-03  3.5888328041664957e-03  3.2239897986590400e-03  2.7341330987391346e-03  2.1379237164874387e-03  1.4581302895203066e-03  7.2076607026805815e-04  -4.5901704129505868e-05  -8.1243254192992593e-04  -1.5493423358477840e-03  -2.2282386045322147e-03  -2.8229175704162094e-03  -3.3103805409222887e-03  -3.6717299565308006e-03  -3.8929099346762868e-03  -3.9652620152509964e-03  -3.8858738852718838e-03  -3.6577068560796101e-03  -3.2894964609057760e-03  -2.7954293399703048e-03  -2.1946080737882128e-03  -1.5103230721435648e-03  -7.6915588867508425e-04  0.0000000000000000e+00  0.0000000000000000e+00  8.9669208045368271e-04  1.7578195777455112e-03  2.5505169683417003e-03  3.2445528804849028e-03  3.8134160198666734e-03  4.2353239829719027e-03  4.4940606881552214e-03  4.5796069701288479e-03  4.4885379889178303e-03  4.2241706656775835e-03  3.7964541904868311e-03  3.2216065745244429e-03  2.5215099897707006e-03  1.7228869473563998e-03  8.5628788388525552e-04  -4.5071865727830443e-05  -9.4658171990443939e-04  -1.8135637698503829e-03  -2.6126080709272916e-03  -3.3128638174830488e-03  -3.8872363107822438e-03  -4.3134429851213255e-03  -4.5748869586530782e-03  -4.6613134357041171e-03  -4.5692225476424569e-03  -4.3020215542068684e-03  -3.8699093481606695e-03  -3.2894964609057773e-03  -2.5831737338482710e-03  -1.7782519155542804e-03  -9.0590211635746955e-04  0.0000000000000000e+00  0.0000000000000000e+00  9.9485964748435548e-04  1.9508048656566661e-03  2.8312734196994883e-03  3.6026198849721277e-03  4.2353239829719027e-03  4.7051122632691079e-03  4.9938885374753274e-03  5.0904351975783425e-03  4.9908565652858269e-03  4.6987455250213023e-03  4.2250654207491353e-03  3.5877501730031758e-03  2.8110364330772124e-03  1.9245519619211569e-03  9.6219392685449395e-04  -3.9160908413678736e-05  -1.0410653891684933e-03  -2.0049769425745010e-03  -2.8937418011950179e-03  -3.6730312327928009e-03  -4.3126740178418112e-03  -4.7878330807883682e-03  -5.0799799029475571e-03  -5.1776279175400541e-03  -5.0767952245549669e-03  -4.7811773064518823e-03  -4.3020215542068701e-03  -3.6577068560796114e-03  -2.8730427597115811e-03  -1.9783133123557326e-03  -1.0081002679419738e-03  0.0000000000000000e+00  0.0000000000000000e+00  1.0545669524876322e-03  2.0684099298935365e-03  3.0027102995291927e-03  3.8217228753381106e-03  4.4940606881552197e-03  4.9938885374753257e-03  5.3019129926023126e-03  5.4061296146691393e-03  5.3022971686548246e-03  4.9941189322412734e-03  4.4931223755025774e-03  3.8182400296184324e-03  2.9951058525349767e-03  2.0550924110248445e-03  1.0341243200217443e-03  -2.8687776234135354e-05  -1.0925411790155696e-03  -2.1165062656421018e-03  -3.0611028228329645e-03  -3.8898267694756064e-03  -4.5705679468123284e-03  -5.0768634654896599e-03  -5.3889371057313498e-03  -5.4944832541465741e-03  -5.3891635292845613e-03  -5.0767952245549678e-03  -4.5692225476424587e-03  -3.8858738852718859e-03  -3.0530204848017569e-03  -2.1027635682309819e-03  -1.0717876339884341e-03  0.0000000000000000e+00  0.0000000000000000e+00  1.0735251302966152e-03  2.1061186079804417e-03  3.0582280203981477e-03  3.8934032009892913e-03  4.5796069701288444e-03  5.0904351975783382e-03  5.4061296146691367e-03  5.5143438525069493e-03  5.4106320830709541e-03  5.0986399229725147e-03  4.5899884583255066e-03  3.9038539042641237e-03  3.0662570714936588e-03  2.1090880301143124e-03  1.0689017081495838e-03  -1.4470763896352580e-05  -1.0994427119268616e-03  -2.1442668312349933e-03  -3.1086432824346671e-03  -3.9552789108880711e-03  -4.6513369432468832e-03  -5.1697203034854877e-03  -5.4901377346422715e-03  -5.5999099984243416e-03  -5.4944832541465758e-03  -5.1776279175400567e-03  -4.6613134357041206e-03  -3.9652620152510008e-03  -3.1161969237992570e-03  -2.1468130912003607e-03  -1.0945089673081807e-03  0.0000000000000000e+00  0.0000000000000000e+00  1.0509916544835618e-03  2.0624490841881444e-03  2.9956337701711440e-03  3.8148116703724810e-03  4.4885379889178251e-03  4.9908565652858217e-03  5.3022971686548202e-03  5.4106320830709506e-03  5.3113619433582220e-03  5.0079106854255496e-03  4.5115203025697442e-03  3.8408474212475474e-03  3.0212750856618452e-03  2.0839641315512558e-03  1.0646787094052497e-03  2.4294850485467311e-06  -1.0620145601302113e-03  -2.0876892935869566e-03  -3.0350137329807131e-03  -3.8673225487764655e-03  -4.5522930841318003e-03  -5.0632108034393483e-03  -5.3800229099713760e-03  -5.4901377346422741e-03  -5.3889371057313524e-03  -5.0799799029475623e-03  -4.5748869586530825e-03  -3.8929099346762920e-03  -3.0601992984929135e-03  -2.1087985793437364e-03  -1.0754032635828571e-03  0.0000000000000000e+00  0.0000000000000000e+00  9.8780484235591647e-04  1.9390213101418358e-03  2.8172390003850310e-03  3.5888328041664896e-03  4.2241706656775766e-03  4.6987455250212962e-03  4.9941189322412673e-03  5.0986399229725086e-03  5.0079106854255470e-03  4.7249797176069077e-03  4.2602532287723954e-03  3.6311260969524835e-03  2.8613443509692867e-03  1.9801214902556408e-03  1.0210405856589532e-03  2.0782636804573888e-05  -9.8227125101722984e-04  -1.9495109638568498e-03  -2.8435854807517787e-03  -3.6298504935614886e-03  -4.2777190699970760e-03  -4.7618621211913013e-03  -5.0632108034393492e-03  -5.1697203034854885e-03  -5.0768634654896633e-03  -4.7878330807883717e-03  -4.3134429851213298e-03  -3.6717299565308037e-03  -2.8872703223069606e-03  -1.9902367032845446e-03  -1.0152309983374086e-03  0.0000000000000000e+00  0.0000000000000000e+00  8.8635684482212993e-04  1.7405044372496611e-03  2.5297837653821364e-03  3.2239897986590322e-03  3.7964541904868237e-03  4.2250654207491266e-03  4.4931223755025704e-03  4.5899884583254979e-03  4.5115203025697381e-03  4.2602532287723920e-03  3.8453344843707290e-03  3.2822046888922418e-03  2.5920374355997743e-03  1.8009563062583907e-03  9.3905727627764061e-04  3.9272274345554872e-05  -8.6388380699235605e-04  -1.7356353553646998e-03  -2.5422870056725851e-03  -3.2525314849821386e-03  -3.8386731893210436e-03  -4.2777190699970760e-03  -4.5522930841318029e-03  -4.6513369432468841e-03  -4.5705679468123301e-03  -4.3126740178418138e-03  -3.8872363107822451e-03  -3.3103805409222908e-03  -2.6041690651464593e-03  -1.7957562910157422e-03  -9.1633977294054583e-04  0.0000000000000000e+00  0.0000000000000000e+00  7.5050648489031634e-04  1.4744465245452594e-03  2.1441906212291929e-03  2.7341330987391255e-03  3.2216065745244321e-03  3.5877501730031650e-03  3.8182400296184215e-03  3.9038539042641125e-03  3.8408474212475365e-03  3.6311260969524774e-03  3.2822046888922383e-03  2.8069532438221934e-03  2.2231372522888374e-03  1.5527672296493534e-03  8.2128053112687975e-04  5.6584969506642000e-05  -7.1200044384914284e-04  -1.4548678224274366e-03  -2.1432629583069901e-03  -2.7504038763851838e-03  -3.2525314849821394e-03  -3.6298504935614899e-03  -3.8673225487764677e-03  -3.9552789108880711e-03  -3.8898267694756085e-03  -3.6730312327928026e-03  -3.3128638174830510e-03  -2.8229175704162107e-03  -2.2218983986155563e-03  -1.5329113777898570e-03  -7.8256936436648956e-04  0.0000000000000000e+00  0.0000000000000000e+00  5.8543532337185038e-04  1.1509929564393121e-03  1.6751571138600553e-03  2.1379237164874279e-03  2.5215099897706881e-03  2.8110364330771989e-03  2.9951058525349633e-03  3.0662570714936441e-03  3.0212750856618313e-03  2.8613443509692767e-03  2.5920374355997674e-03  2.2231372522888340e-03  1.7682973031885414e-03  1.2445505873034126e-03  6.7168379828818389e-04  7.1498935260263196e-05  -5.3301077313586392e-04  -1.1185398860991584e-03  -1.6623712374466294e-03  -2.1432629583069901e-03  -2.5422870056725864e-03  -2.8435854807517787e-03  -3.0350137329807144e-03  -3.1086432824346663e-03  -3.0611028228329663e-03  -2.8937418011950188e-03  -2.6126080709272916e-03  -2.2282386045322142e-03  -1.7552699220822945e-03  -1.2118824158593743e-03  -6.1909979839298889e-04  0.0000000000000000e+00  0.0000000000000000e+00  3.9745238216645486e-04  7.8250411525181412e-04  1.1406019750840547e-03  1.4581302895202944e-03  1.7228869473563859e-03  1.9245519619211411e-03  2.0550924110248271e-03  2.1090880301142959e-03  2.0839641315512393e-03  1.9801214902556269e-03  1.8009563062583798e-03  1.5527672296493467e-03  1.2445505873034089e-03  8.8768923497728241e-04  4.9554470705710178e-04  8.2966373292283279e-05  -3.3426504126178260e-04  -7.4003913261910944e-04  -1.1185398860991589e-03  -1.4548678224274368e-03  -1.7356353553647003e-03  -1.9495109638568500e-03  -2.0876892935869566e-03  -2.1442668312349929e-03  -2.1165062656421023e-03  -2.0049769425745014e-03  -1.8135637698503825e-03  -1.5493423358477836e-03  -1.2223236358940984e-03  -8.4507740660354008e-04  -4.3224838728864829e-04  0.0000000000000000e+00  0.0000000000000000e+00  1.9375488110302065e-04  3.8308666939152250e-04  5.6098574756825595e-04  7.2076607026804373e-04  8.5628788388523872e-04  9.6219392685447530e-04  1.0341243200217239e-03  1.0689017081495634e-03  1.0646787094052302e-03  1.0210405856589356e-03  9.3905727627762619e-04  8.2128053112686880e-04  6.7168379828817608e-04  4.9554470705709766e-04  2.9927235276965588e-04  9.0184033516065658e-05  -1.2376150749117231e-04  -3.3426504126178250e-04  -5.3301077313586413e-04  -7.1200044384914273e-04  -8.6388380699235583e-04  -9.8227125101722898e-04  -1.0620145601302100e-03  -1.0994427119268603e-03  -1.0925411790155687e-03  -1.0410653891684924e-03  -9.4658171990443820e-04  -8.1243254192992517e-04  -6.4362523614064446e-04  -4.4664862346124250e-04  -2.2922368429012621e-04  0.0000000000000000e+00  0.0000000000000000e+00  -1.7845966482144013e-05  -3.1943826855178282e-05  -4.1468560198916481e-05  -4.5901704129522057e-05  -4.5071865727849566e-05  -3.9160908413700292e-05  -2.8687776234158722e-05  -1.4470763896376351e-05  2.4294850485230155e-06  2.0782636804552119e-05  3.9272274345535716e-05  5.6584969506626340e-05  7.1498935260251066e-05  8.2966373292274944e-05  9.0184033516061443e-05  9.2647277475613405e-05  9.0184033516065793e-05  8.2966373292283482e-05  7.1498935260263521e-05  5.6584969506642528e-05  3.9272274345555692e-05  2.0782636804575263e-05  2.4294850485482126e-06  -1.4470763896350847e-05  -2.8687776234133443e-05  -3.9160908413676859e-05  -4.5071865727828729e-05  -4.5901704129504547e-05  -4.1468560198902942e-05  -3.1943826855169080e-05  -1.7845966482139378e-05  0.0000000000000000e+00  0.0000000000000000e+00  -2.2922368429013107e-04  -4.4664862346125198e-04  -6.4362523614065878e-04  -8.1243254192994371e-04  -9.4658171990446086e-04  -1.0410653891685178e-03  -1.0925411790155962e-03  -1.0994427119268894e-03  -1.0620145601302389e-03  -9.8227125101725608e-04  -8.6388380699237990e-04  -7.1200044384916333e-04  -5.3301077313588061e-04  -3.3426504126179507e-04  -1.2376150749118076e-04  9.0184033516061484e-05  2.9927235276965616e-04  4.9554470705710221e-04  6.7168379828818432e-04  8.2128053112688040e-04  9.3905727627764169e-04  1.0210405856589553e-03  1.0646787094052523e-03  1.0689017081495860e-03  1.0341243200217469e-03  9.6219392685449612e-04  8.5628788388525791e-04  7.2076607026805989e-04  5.6098574756826864e-04  3.8308666939153112e-04  1.9375488110302504e-04  0.0000000000000000e+00  0.0000000000000000e+00  -4.3224838728865334e-04  -8.4507740660355027e-04  -1.2223236358941136e-03  -1.5493423358478029e-03  -1.8135637698504061e-03  -2.0049769425745283e-03  -2.1165062656421322e-03  -2.1442668312350254e-03  -2.0876892935869891e-03  -1.9495109638568806e-03  -1.7356353553647282e-03  -1.4548678224274609e-03  -1.1185398860991790e-03  -7.4003913261912603e-04  -3.3426504126179502e-04  8.2966373292275202e-05  4.9554470705709809e-04  8.8768923497728306e-04  1.2445505873034132e-03  1.5527672296493540e-03  1.8009563062583926e-03  1.9801214902556443e-03  2.0839641315512601e-03  2.1090880301143167e-03  2.0550924110248475e-03  1.9245519619211606e-03  1.7228869473564037e-03  1.4581302895203092e-03  1.1406019750840662e-03  7.8250411525182203e-04  3.9745238216645881e-04  0.0000000000000000e+00  0.0000000000000000e+00  -6.1909979839299399e-04  -1.2118824158593845e-03  -1.7552699220823101e-03  -2.2282386045322346e-03  -2.6126080709273167e-03  -2.8937418011950470e-03  -3.0611028228329984e-03  -3.1086432824347036e-03  -3.0350137329807508e-03  -2.8435854807518134e-03  -2.5422870056726172e-03  -2.1432629583070188e-03  -1.6623712374466536e-03  -1.1185398860991788e-03  -5.3301077313588029e-04  7.1498935260251513e-05  6.7168379828817652e-04  1.2445505873034095e-03  1.7682973031885423e-03  2.2231372522888383e-03  2.5920374355997778e-03  2.8613443509692923e-03  3.0212750856618508e-03  3.0662570714936645e-03  2.9951058525349815e-03  2.8110364330772154e-03  2.5215099897707032e-03  2.1379237164874405e-03  1.6751571138600655e-03  1.1509929564393188e-03  5.8543532337185385e-04  0.0000000000000000e+00  0.0000000000000000e+00  -7.8256936436649465e-04  -1.5329113777898678e-03  -2.2218983986155723e-03  -2.8229175704162319e-03  -3.3128638174830757e-03  -3.6730312327928312e-03  -3.8898267694756411e-03  -3.9552789108881076e-03  -3.8673225487765033e-03  -3.6298504935615254e-03  -3.2525314849821724e-03  -2.7504038763852146e-03  -2.1432629583070175e-03  -1.4548678224274600e-03  -7.1200044384916214e-04  5.6584969506627478e-05  8.2128053112686956e-04  1.5527672296493473e-03  2.2231372522888353e-03  2.8069532438221964e-03  3.2822046888922470e-03  3.6311260969524905e-03  3.8408474212475539e-03  3.9038539042641303e-03  3.8182400296184376e-03  3.5877501730031806e-03  3.2216065745244459e-03  2.7341330987391359e-03  2.1441906212292011e-03  1.4744465245452650e-03  7.5050648489031937e-04  0.0000000000000000e+00  0.0000000000000000e+00  -9.1633977294055125e-04  -1.7957562910157531e-03  -2.6041690651464754e-03  -3.3103805409223116e-03  -3.8872363107822711e-03  -4.3126740178418433e-03  -4.5705679468123622e-03  -4.6513369432469188e-03  -4.5522930841318393e-03  -4.2777190699971133e-03  -3.8386731893210778e-03  -3.2525314849821715e-03  -2.5422870056726150e-03  -1.7356353553647256e-03  -8.6388380699237751e-04  3.9272274345537972e-05  9.3905727627762836e-04  1.8009563062583835e-03  2.5920374355997726e-03  3.2822046888922453e-03  3.8453344843707355e-03  4.2602532287724024e-03  4.5115203025697520e-03  4.5899884583255144e-03  4.4931223755025835e-03  4.2250654207491379e-03  3.7964541904868328e-03  3.2239897986590400e-03  2.5297837653821425e-03  1.7405044372496659e-03  8.8635684482213253e-04  0.0000000000000000e+00  0.0000000000000000e+00  -1.0152309983374138e-03  -1.9902367032845550e-03  -2.8872703223069766e-03  -3.6717299565308262e-03  -4.3134429851213575e-03  -4.7878330807884029e-03  -5.0768634654896972e-03  -5.1697203034855241e-03  -5.0632108034393847e-03  -4.7618621211913395e-03  -4.2777190699971124e-03  -3.6298504935615233e-03  -2.8435854807518099e-03  -1.9495109638568769e-03  -9.8227125101725283e-04  2.0782636804555534e-05  1.0210405856589397e-03  1.9801214902556326e-03  2.8613443509692845e-03  3.6311260969524857e-03  4.2602532287723998e-03  4.7249797176069138e-03  5.0079106854255574e-03  5.0986399229725234e-03  4.9941189322412769e-03  4.6987455250213049e-03  4.2241706656775844e-03  3.5888328041664952e-03  2.8172390003850349e-03  1.9390213101418391e-03  9.8780484235591842e-04  0.0000000000000000e+00  0.0000000000000000e+00  -1.0754032635828621e-03  -2.1087985793437460e-03  -3.0601992984929287e-03  -3.8929099346763129e-03  -4.5748869586531102e-03  -5.0799799029475935e-03  -5.3889371057313871e-03  -5.4901377346423096e-03  -5.3800229099714133e-03  -5.0632108034393873e-03  -4.5522930841318376e-03  -3.8673225487765011e-03  -3.0350137329807451e-03  -2.0876892935869839e-03  -1.0620145601302352e-03  2.4294850485273591e-06  1.0646787094052354e-03  2.0839641315512471e-03  3.0212750856618413e-03  3.8408474212475469e-03  4.5115203025697468e-03  5.0079106854255548e-03  5.3113619433582289e-03  5.4106320830709593e-03  5.3022971686548263e-03  4.9908565652858269e-03  4.4885379889178295e-03  3.8148116703724841e-03  2.9956337701711445e-03  2.0624490841881461e-03  1.0509916544835635e-03  0.0000000000000000e+00  0.0000000000000000e+00  -1.0945089673081857e-03  -2.1468130912003711e-03  -3.1161969237992727e-03  -3.9652620152510207e-03  -4.6613134357041466e-03  -5.1776279175400871e-03  -5.4944832541466097e-03  -5.5999099984243772e-03  -5.4901377346423096e-03  -5.1697203034855249e-03  -4.6513369432469188e-03  -3.9552789108881050e-03  -3.1086432824346992e-03  -2.1442668312350211e-03  -1.0994427119268850e-03  -1.4470763896371941e-05  1.0689017081495686e-03  2.1090880301143020e-03  3.0662570714936528e-03  3.9038539042641207e-03  4.5899884583255057e-03  5.098639922