<?xml version="1.0"?>
<VTKFile type="UnstructuredGrid"  version="0.1"  >
<UnstructuredGrid>
<Piece  NumberOfPoints="1089" NumberOfCells="2048">
<Points>
<DataArray  type="Float64"  NumberOfComponents="3"  format="ascii">0 0 0  0.03125 0 0  0.0625 0 0  0.09375 0 0  0.125 0 0  0.15625 0 0  0.1875 0 0  0.21875 0 0  0.25 0 0  0.28125 0 0  0.3125 0 0  0.34375 0 0  0.375 0 0  0.40625 0 0  0.4375 0 0  0.46875 0 0  0.5 0 0  0.53125 0 0  0.5625 0 0  0.59375 0 0  0.625 0 0  0.65625 0 0  0.6875 0 0  0.71875 0 0  0.75 0 0  0.78125 0 0  0.8125 0 0  0.84375 0 0  0.875 0 0  0.90625 0 0  0.9375 0 0  0.96875 0 0  1 0 0  0 0.03125 0  0.03125 0.03125 0  0.0625 0.03125 0  0.09375 0.03125 0  0.125 0.03125 0  0.15625 0.03125 0  0.1875 0.03125 0  0.21875 0.03125 0  0.25 0.03125 0  0.28125 0.03125 0  0.3125 0.03125 0  0.34375 0.03125 0  0.375 0.03125 0  0.40625 0.03125 0  0.4375 0.03125 0  0.46875 0.03125 0  0.5 0.03125 0  0.53125 0.03125 0  0.5625 0.03125 0  0.59375 0.03125 0  0.625 0.03125 0  0.65625 0.03125 0  0.6875 0.03125 0  0.71875 0.03125 0  0.75 0.03125 0  0.78125 0.03125 0  0.8125 0.03125 0  0.84375 0.03125 0  0.875 0.03125 0  0.90625 0.03125 0  0.9375 0.03125 0  0.96875 0.03125 0  1 0.03125 0  0 0.0625 0  0.03125 0.0625 0  0.0625 0.0625 0  0.09375 0.0625 0  0.125 0.0625 0  0.15625 0.0625 0  0.1875 0.0625 0  0.21875 0.0625 0  0.25 0.0625 0  0.28125 0.0625 0  0.3125 0.0625 0  0.34375 0.0625 0  0.375 0.0625 0  0.40625 0.0625 0  0.4375 0.0625 0  0.46875 0.0625 0  0.5 0.0625 0  0.53125 0.0625 0  0.5625 0.0625 0  0.59375 0.0625 0  0.625 0.0625 0  0.65625 0.0625 0  0.6875 0.0625 0  0.71875 0.0625 0  0.75 0.0625 0  0.78125 0.0625 0  0.8125 0.0625 0  0.84375 0.0625 0  0.875 0.0625 0  0.90625 0.0625 0  0.9375 0.0625 0  0.96875 0.0625 0  1 0.0625 0  0 0.09375 0  0.03125 0.09375 0  0.0625 0.09375 0  0.09375 0.09375 0  0.125 0.09375 0  0.15625 0.09375 0  0.1875 0.09375 0  0.21875 0.09375 0  0.25 0.09375 0  0.28125 0.09375 0  0.3125 0.09375 0  0.34375 0.09375 0  0.375 0.09375 0  0.40625 0.09375 0  0.4375 0.09375 0  0.46875 0.09375 0  0.5 0.09375 0  0.53125 0.09375 0  0.5625 0.09375 0  0.59375 0.09375 0  0.625 0.09375 0  0.65625 0.09375 0  0.6875 0.09375 0  0.71875 0.09375 0  0.75 0.09375 0  0.78125 0.09375 0  0.8125 0.09375 0  0.84375 0.09375 0  0.875 0.09375 0  0.90625 0.09375 0  0.9375 0.09375 0  0.96875 0.09375 0  1 0.09375 0  0 0.125 0  0.03125 0.125 0  0.0625 0.125 0  0.09375 0.125 0  0.125 0.125 0  0.15625 0.125 0  0.1875 0.125 0  0.21875 0.125 0  0.25 0.125 0  0.28125 0.125 0  0.3125 0.125 0  0.34375 0.125 0  0.375 0.125 0  0.40625 0.125 0  0.4375 0.125 0  0.46875 0.125 0  0.5 0.125 0  0.53125 0.125 0  0.5625 0.125 0  0.59375 0.125 0  0.625 0.125 0  0.65625 0.125 0  0.6875 0.125 0  0.71875 0.125 0  0.75 0.125 0  0.78125 0.125 0  0.8125 0.125 0  0.84375 0.125 0  0.875 0.125 0  0.90625 0.125 0  0.9375 0.125 0  0.96875 0.125 0  1 0.125 0  0 0.15625 0  0.03125 0.15625 0  0.0625 0.15625 0  0.09375 0.15625 0  0.125 0.15625 0  0.15625 0.15625 0  0.1875 0.15625 0  0.21875 0.15625 0  0.25 0.15625 0  0.28125 0.15625 0  0.3125 0.15625 0  0.34375 0.15625 0  0.375 0.15625 0  0.40625 0.15625 0  0.4375 0.15625 0  0.46875 0.15625 0  0.5 0.15625 0  0.53125 0.15625 0  0.5625 0.15625 0  0.59375 0.15625 0  0.625 0.15625 0  0.65625 0.15625 0  0.6875 0.15625 0  0.71875 0.15625 0  0.75 0.15625 0  0.78125 0.15625 0  0.8125 0.15625 0  0.84375 0.15625 0  0.875 0.15625 0  0.90625 0.15625 0  0.9375 0.15625 0  0.96875 0.15625 0  1 0.15625 0  0 0.1875 0  0.03125 0.1875 0  0.0625 0.1875 0  0.09375 0.1875 0  0.125 0.1875 0  0.15625 0.1875 0  0.1875 0.1875 0  0.21875 0.1875 0  0.25 0.1875 0  0.28125 0.1875 0  0.3125 0.1875 0  0.34375 0.1875 0  0.375 0.1875 0  0.40625 0.1875 0  0.4375 0.1875 0  0.46875 0.1875 0  0.5 0.1875 0  0.53125 0.1875 0  0.5625 0.1875 0  0.59375 0.1875 0  0.625 0.1875 0  0.65625 0.1875 0  0.6875 0.1875 0  0.71875 0.1875 0  0.75 0.1875 0  0.78125 0.1875 0  0.8125 0.1875 0  0.84375 0.1875 0  0.875 0.1875 0  0.90625 0.1875 0  0.9375 0.1875 0  0.96875 0.1875 0  1 0.1875 0  0 0.21875 0  0.03125 0.21875 0  0.0625 0.21875 0  0.09375 0.21875 0  0.125 0.21875 0  0.15625 0.21875 0  0.1875 0.21875 0  0.21875 0.21875 0  0.25 0.21875 0  0.28125 0.21875 0  0.3125 0.21875 0  0.34375 0.21875 0  0.375 0.21875 0  0.40625 0.21875 0  0.4375 0.21875 0  0.46875 0.21875 0  0.5 0.21875 0  0.53125 0.21875 0  0.5625 0.21875 0  0.59375 0.21875 0  0.625 0.21875 0  0.65625 0.21875 0  0.6875 0.21875 0  0.71875 0.21875 0  0.75 0.21875 0  0.78125 0.21875 0  0.8125 0.21875 0  0.84375 0.21875 0  0.875 0.21875 0  0.90625 0.21875 0  0.9375 0.21875 0  0.96875 0.21875 0  1 0.21875 0  0 0.25 0  0.03125 0.25 0  0.0625 0.25 0  0.09375 0.25 0  0.125 0.25 0  0.15625 0.25 0  0.1875 0.25 0  0.21875 0.25 0  0.25 0.25 0  0.28125 0.25 0  0.3125 0.25 0  0.34375 0.25 0  0.375 0.25 0  0.40625 0.25 0  0.4375 0.25 0  0.46875 0.25 0  0.5 0.25 0  0.53125 0.25 0  0.5625 0.25 0  0.59375 0.25 0  0.625 0.25 0  0.65625 0.25 0  0.6875 0.25 0  0.71875 0.25 0  0.75 0.25 0  0.78125 0.25 0  0.8125 0.25 0  0.84375 0.25 0  0.875 0.25 0  0.90625 0.25 0  0.9375 0.25 0  0.96875 0.25 0  1 0.25 0  0 0.28125 0  0.03125 0.28125 0  0.0625 0.28125 0  0.09375 0.28125 0  0.125 0.28125 0  0.15625 0.28125 0  0.1875 0.28125 0  0.21875 0.28125 0  0.25 0.28125 0  0.28125 0.28125 0  0.3125 0.28125 0  0.34375 0.28125 0  0.375 0.28125 0  0.40625 0.28125 0  0.4375 0.28125 0  0.46875 0.28125 0  0.5 0.28125 0  0.53125 0.28125 0  0.5625 0.28125 0  0.59375 0.28125 0  0.625 0.28125 0  0.65625 0.28125 0  0.6875 0.28125 0  0.71875 0.28125 0  0.75 0.28125 0  0.78125 0.28125 0  0.8125 0.28125 0  0.84375 0.28125 0  0.875 0.28125 0  0.90625 0.28125 0  0.9375 0.28125 0  0.96875 0.28125 0  1 0.28125 0  0 0.3125 0  0.03125 0.3125 0  0.0625 0.3125 0  0.09375 0.3125 0  0.125 0.3125 0  0.15625 0.3125 0  0.1875 0.3125 0  0.21875 0.3125 0  0.25 0.3125 0  0.28125 0.3125 0  0.3125 0.3125 0  0.34375 0.3125 0  0.375 0.3125 0  0.40625 0.3125 0  0.4375 0.3125 0  0.46875 0.3125 0  0.5 0.3125 0  0.53125 0.3125 0  0.5625 0.3125 0  0.59375 0.3125 0  0.625 0.3125 0  0.65625 0.3125 0  0.6875 0.3125 0  0.71875 0.3125 0  0.75 0.3125 0  0.78125 0.3125 0  0.8125 0.3125 0  0.84375 0.3125 0  0.875 0.3125 0  0.90625 0.3125 0  0.9375 0.3125 0  0.96875 0.3125 0  1 0.3125 0  0 0.34375 0  0.03125 0.34375 0  0.0625 0.34375 0  0.09375 0.34375 0  0.125 0.34375 0  0.15625 0.34375 0  0.1875 0.34375 0  0.21875 0.34375 0  0.25 0.34375 0  0.28125 0.34375 0  0.3125 0.34375 0  0.34375 0.34375 0  0.375 0.34375 0  0.40625 0.34375 0  0.4375 0.34375 0  0.46875 0.34375 0  0.5 0.34375 0  0.53125 0.34375 0  0.5625 0.34375 0  0.59375 0.34375 0  0.625 0.34375 0  0.65625 0.34375 0  0.6875 0.34375 0  0.71875 0.34375 0  0.75 0.34375 0  0.78125 0.34375 0  0.8125 0.34375 0  0.84375 0.34375 0  0.875 0.34375 0  0.90625 0.34375 0  0.9375 0.34375 0  0.96875 0.34375 0  1 0.34375 0  0 0.375 0  0.03125 0.375 0  0.0625 0.375 0  0.09375 0.375 0  0.125 0.375 0  0.15625 0.375 0  0.1875 0.375 0  0.21875 0.375 0  0.25 0.375 0  0.28125 0.375 0  0.3125 0.375 0  0.34375 0.375 0  0.375 0.375 0  0.40625 0.375 0  0.4375 0.375 0  0.46875 0.375 0  0.5 0.375 0  0.53125 0.375 0  0.5625 0.375 0  0.59375 0.375 0  0.625 0.375 0  0.65625 0.375 0  0.6875 0.375 0  0.71875 0.375 0  0.75 0.375 0  0.78125 0.375 0  0.8125 0.375 0  0.84375 0.375 0  0.875 0.375 0  0.90625 0.375 0  0.9375 0.375 0  0.96875 0.375 0  1 0.375 0  0 0.40625 0  0.03125 0.40625 0  0.0625 0.40625 0  0.09375 0.40625 0  0.125 0.40625 0  0.15625 0.40625 0  0.1875 0.40625 0  0.21875 0.40625 0  0.25 0.40625 0  0.28125 0.40625 0  0.3125 0.40625 0  0.34375 0.40625 0  0.375 0.40625 0  0.40625 0.40625 0  0.4375 0.40625 0  0.46875 0.40625 0  0.5 0.40625 0  0.53125 0.40625 0  0.5625 0.40625 0  0.59375 0.40625 0  0.625 0.40625 0  0.65625 0.40625 0  0.6875 0.40625 0  0.71875 0.40625 0  0.75 0.40625 0  0.78125 0.40625 0  0.8125 0.40625 0  0.84375 0.40625 0  0.875 0.40625 0  0.90625 0.40625 0  0.9375 0.40625 0  0.96875 0.40625 0  1 0.40625 0  0 0.4375 0  0.03125 0.4375 0  0.0625 0.4375 0  0.09375 0.4375 0  0.125 0.4375 0  0.15625 0.4375 0  0.1875 0.4375 0  0.21875 0.4375 0  0.25 0.4375 0  0.28125 0.4375 0  0.3125 0.4375 0  0.34375 0.4375 0  0.375 0.4375 0  0.40625 0.4375 0  0.4375 0.4375 0  0.46875 0.4375 0  0.5 0.4375 0  0.53125 0.4375 0  0.5625 0.4375 0  0.59375 0.4375 0  0.625 0.4375 0  0.65625 0.4375 0  0.6875 0.4375 0  0.71875 0.4375 0  0.75 0.4375 0  0.78125 0.4375 0  0.8125 0.4375 0  0.84375 0.4375 0  0.875 0.4375 0  0.90625 0.4375 0  0.9375 0.4375 0  0.96875 0.4375 0  1 0.4375 0  0 0.46875 0  0.03125 0.46875 0  0.0625 0.46875 0  0.09375 0.46875 0  0.125 0.46875 0  0.15625 0.46875 0  0.1875 0.46875 0  0.21875 0.46875 0  0.25 0.46875 0  0.28125 0.46875 0  0.3125 0.46875 0  0.34375 0.46875 0  0.375 0.46875 0  0.40625 0.46875 0  0.4375 0.46875 0  0.46875 0.46875 0  0.5 0.46875 0  0.53125 0.46875 0  0.5625 0.46875 0  0.59375 0.46875 0  0.625 0.46875 0  0.65625 0.46875 0  0.6875 0.46875 0  0.71875 0.46875 0  0.75 0.46875 0  0.78125 0.46875 0  0.8125 0.46875 0  0.84375 0.46875 0  0.875 0.46875 0  0.90625 0.46875 0  0.9375 0.46875 0  0.96875 0.46875 0  1 0.46875 0  0 0.5 0  0.03125 0.5 0  0.0625 0.5 0  0.09375 0.5 0  0.125 0.5 0  0.15625 0.5 0  0.1875 0.5 0  0.21875 0.5 0  0.25 0.5 0  0.28125 0.5 0  0.3125 0.5 0  0.34375 0.5 0  0.375 0.5 0  0.40625 0.5 0  0.4375 0.5 0  0.46875 0.5 0  0.5 0.5 0  0.53125 0.5 0  0.5625 0.5 0  0.59375 0.5 0  0.625 0.5 0  0.65625 0.5 0  0.6875 0.5 0  0.71875 0.5 0  0.75 0.5 0  0.78125 0.5 0  0.8125 0.5 0  0.84375 0.5 0  0.875 0.5 0  0.90625 0.5 0  0.9375 0.5 0  0.96875 0.5 0  1 0.5 0  0 0.53125 0  0.03125 0.53125 0  0.0625 0.53125 0  0.09375 0.53125 0  0.125 0.53125 0  0.15625 0.53125 0  0.1875 0.53125 0  0.21875 0.53125 0  0.25 0.53125 0  0.28125 0.53125 0  0.3125 0.53125 0  0.34375 0.53125 0  0.375 0.53125 0  0.40625 0.53125 0  0.4375 0.53125 0  0.46875 0.53125 0  0.5 0.53125 0  0.53125 0.53125 0  0.5625 0.53125 0  0.59375 0.53125 0  0.625 0.53125 0  0.65625 0.53125 0  0.6875 0.53125 0  0.71875 0.53125 0  0.75 0.53125 0  0.78125 0.531
[...]
<PointData  Scalars="phi"> 
<DataArray  type="Float64"  Name="phi"  format="ascii">0.0000000000000000e+00  0.0000000000000000e+00  0.0000000000000000e+00  0.0000000000000000e+00  0.0000000000000000e+00  0.0000000000000000e+00  0.0000000000000000e+00  0.0000000000000000e+00  0.0000000000000000e+00  0.0000000000000000e+00  0.0000000000000000e+00  0.0000000000000000e+00  0.0000000000000000e+00  0.0000000000000000e+00  0.0000000000000000e+00  0.0000000000000000e+00  0.0000000000000000e+00  0.0000000000000000e+00  0.0000000000000000e+00  0.0000000000000000e+00  0.0000000000000000e+00  0.0000000000000000e+00  0.0000000000000000e+00  0.0000000000000000e+00  0.0000000000000000e+00  0.0000000000000000e+00  0.0000000000000000e+00  0.0000000000000000e+00  0.0000000000000000e+00  0.0000000000000000e+00  0.0000000000000000e+00  0.0000000000000000e+00  0.0000000000000000e+00  0.0000000000000000e+00  -8.5100483127276217e-05  -1.6782739435342779e-04  -2.4634418149580218e-04  -3.1888088834630451e-04  -3.8383290607291941e-04  -4.3982711235146055e-04  -4.8577050897142859e-04  -5.2088522956281462e-04  -5.4473062761349730e-04  -5.5721244660375492e-04  -5.5857913165507857e-04  -5.4940565668495098e-04  -5.3056563749424520e-04  -5.0319290691441191e-04  -4.6863410555342364e-04  -4.2839416720288984e-04  -3.8407683507074542e-04  -3.3732252193632698e-04  -2.8974591640231080e-04  -2.4287573481054117e-04  -1.9809892404053377e-04  -1.5661143793690313e-04  -1.1937744662119212e-04  -8.7098503752268115e-05  -6.0193805074457821e-05  -3.8792237942356814e-05  -2.2736463623742926e-05  -1.1598811731408655e-05  -4.7083215687641006e-06  -1.1878672609120539e-06  -1.3161315856543639e-17  0.0000000000000000e+00  0.0000000000000000e+00  -1.6782739435342744e-04  -3.3116397804728670e-04  -4.8623116808525367e-04  -6.2947383386279866e-04  -7.5769216605292024e-04  -8.6815527709192244e-04  -9.5869236923042383e-04  -1.0277604538754975e-03  -1.0744875624628212e-03  -1.0986906865432708e-03  -1.1008683036477672e-03  -1.0821681339405640e-03  -1.0443316188862022e-03  -9.8961744275199645e-04  -9.2070717839037516e-04  -8.4059679116039586e-04  -7.5247824902907547e-04  -6.5961584060079698e-04  -5.6522198123503038e-04  -4.7233728310334695e-04  -3.8371947797112766e-04  -3.0174541888108159e-04  -2.2832986288684741e-04  -1.6486407201329645e-04  -1.1217648979338866e-04  -7.0516886860795902e-05  -3.9564455768573770e-05  -1.8459410062330456e-05  -5.8567459276573505e-06  -5.1557260107990738e-17  1.1878672608599374e-06  0.0000000000000000e+00  0.0000000000000000e+00  -2.4634418149580061e-04  -4.8623116808525172e-04  -7.1398079799282581e-04  -9.2428841592693471e-04  -1.1123976375558928e-03  -1.2742579786890042e-03  -1.4066552305767610e-03  -1.5073097699952812e-03  -1.5749396665866069e-03  -1.6092867688292018e-03  -1.6111052549531389e-03  -1.5821134720466559e-03  -1.5249112166331881e-03  -1.4428658762764904e-03  -1.3399719986639008e-03  -1.2206898330768701e-03  -1.0897691585195662e-03  -9.5206524172721494e-04  -8.1235403556723551e-04  -6.7515372329391820e-04  -5.4455943682261781e-04  -4.2409743842918143e-04  -3.1660427604049234e-04  -2.2413543293794180e-04  -1.4790683186736232e-04  -8.8271266682092339e-05  -4.4730472383356688e-05  -1.5982160828951580e-05  -1.1159077680034937e-16  5.8567459275056198e-06  4.7083215686873763e-06  0.0000000000000000e+00  0.0000000000000000e+00  -3.1888088834630072e-04  -6.2947383386279280e-04  -9.2428841592692951e-04  -1.1963474153360368e-03  -1.4394073725173277e-03  -1.6481606862373279e-03  -1.8184037834649003e-03  -1.9471644994501095e-03  -2.0327839488188111e-03  -2.0749501074655216e-03  -2.0746822089716208e-03  -2.0342669200885972e-03  -1.9571490670347545e-03  -1.8477813824476197e-03  -1.7114392703247749e-03  -1.5540078849057900e-03  -1.3817498388869376e-03  -1.2010625570096954e-03  -1.0182346457509347e-03  -8.3921064489194774e-04  -6.6937316247203432e-04  -5.1335068530239565e-04  -3.7485833046283179e-04  -2.5657749896081458e-04  -1.6007886169487411e-04  -8.5791409539161405e-05  -3.3018499764544894e-05  -1.8749445678252401e-16  1.5982160828662224e-05  1.8459410062133657e-05  1.1598811731309104e-05  0.0000000000000000e+00  0.0000000000000000e+00  -3.8383290607291187e-04  -7.5769216605290756e-04  -1.1123976375558785e-03  -1.4394073725173171e-03  -1.7310874916545936e-03  -1.9809585221345506e-03  -2.1839001904471952e-03  -2.3363065350919458e-03  -2.4361854646777707e-03  -2.4831992040372361e-03  -2.4786444114714137e-03  -2.4253730761957760e-03  -2.3276575583491043e-03  -2.1910052440086299e-03  -2.0219301809630522e-03  -1.8276906681229783e-03  -1.6160030321090717e-03  -1.3947426910063923e-03  -1.1716440446370747e-03  -9.5401072645727165e-04  -7.4844730486694610e-04  -5.6062264894161788e-04  -3.9507390935901714e-04  -2.5505845868758266e-04  -1.4245924848921743e-04  -5.7746946866819813e-05  -2.7186009981452522e-16  3.3018499764093222e-05  4.4730472383007968e-05  3.9564455768336499e-05  2.2736463623622858e-05  0.0000000000000000e+00  0.0000000000000000e+00  -4.3982711235144797e-04  -8.6815527709189978e-04  -1.2742579786889762e-03  -1.6481606862373006e-03  -1.9809585221345315e-03  -2.2651052579403513e-03  -2.4946530757067138e-03  -2.6654338968904560e-03  -2.7751754744120265e-03  -2.8235480579260706e-03  -2.8121401644384050e-03  -2.7443647236459496e-03  -2.6252995290592888e-03  -2.4614684203747234e-03  -2.2605718604024510e-03  -2.0311774689400091e-03  -1.7823825655083557e-03  -1.5234617969082874e-03  -1.2635134456232765e-03  -1.0111180118705964e-03  -7.7402213629065506e-04  -5.5885990262281784e-04  -3.7092207027731271e-04  -2.1398189324115614e-04  -9.0183957501554471e-05  -3.5629629759282523e-16  5.7746946866197081e-05  8.5791409538643685e-05  8.8271266681692377e-05  7.0516886860523645e-05  3.8792237942218992e-05  0.0000000000000000e+00  0.0000000000000000e+00  -4.8577050897140908e-04  -9.5869236923038761e-04  -1.4066552305767137e-03  -1.8184037834648493e-03  -2.1839001904471488e-03  -2.4946530757066852e-03  -2.7439899798269865e-03  -2.9272630552737095e-03  -3.0419803729784529e-03  -3.0878581091129632e-03  -3.0667919456825459e-03  -2.9827491259763524e-03  -2.8415856397128831e-03  -2.6507958609583871e-03  -2.4192045191342385e-03  -2.1566130543343698e-03  -1.8734141113533613e-03  -1.5801890982433549e-03  -1.2873043308935339e-03  -1.0045212829890059e-03  -7.4063586154239538e-04  -5.0316045566604819e-04  -2.9806080602036206e-04  -1.2955758032291692e-04  -4.3217948562687734e-16  9.0183957500769102e-05  1.4245924848853029e-04  1.6007886169430233e-04  1.4790683186692029e-04  1.1217648979308756e-04  6.0193805074305342e-05  0.0000000000000000e+00  0.0000000000000000e+00  -5.2088522956278633e-04  -1.0277604538754441e-03  -1.5073097699952092e-03  -1.9471644994500271e-03  -2.3363065350918638e-03  -2.6654338968903862e-03  -2.9272630552736678e-03  -3.1167567924088226e-03  -3.2312692081603099e-03  -3.2706026582994393e-03  -3.2369747947257471e-03  -3.1348973218616339e-03  -2.9709714553252204e-03  -2.7536082396442630e-03  -2.4926847310095665e-03  -2.1991494711347905e-03  -1.8845925776840157e-03  -1.5607970836692532e-03  -1.2392888234731847e-03  -9.3090216199078705e-04  -6.4537819659210224e-04  -3.9101075548685961e-04  -1.7435362143755813e-04  -4.9141115525408985e-16  1.2955758032199435e-04  2.1398189324031643e-04  2.5505845868684692e-04  2.5657749896020174e-04  2.2413543293746760e-04  1.6486407201297327e-04  8.7098503752104387e-05  0.0000000000000000e+00  0.0000000000000000e+00  -5.4473062761345849e-04  -1.0744875624627472e-03  -1.5749396665865054e-03  -2.0327839488186910e-03  -2.4361854646776440e-03  -2.7751754744119086e-03  -3.0419803729783575e-03  -3.2312692081602548e-03  -3.3403106873020291e-03  -3.3690340259299760e-03  -3.3199916675523450e-03  -3.1982256541786269e-03  -3.0110431038153588e-03  -2.7677097120185840e-03  -2.4790733067420866e-03  -2.1571321303780889e-03  -1.8145645993165056e-03  -1.4642387206441399e-03  -1.1187200736650586e-03  -7.8979726352963850e-04  -4.8804302613502596e-04  -2.2242773625058307e-04  -5.2714019250083796e-16  1.7435362143653865e-04  2.9806080601940275e-04  3.7092207027643786e-04  3.9507390935824936e-04  3.7485833046219130e-04  3.1660427603999631e-04  2.2832986288650914e-04  1.1937744662102068e-04  0.0000000000000000e+00  0.0000000000000000e+00  -5.5721244660370439e-04  -1.0986906865431737e-03  -1.6092867688290657e-03  -2.0749501074653577e-03  -2.4831992040370574e-03  -2.8235480579258928e-03  -3.0878581091128027e-03  -3.2706026582993136e-03  -3.3690340259299053e-03  -3.3832474154421935e-03  -3.3161393879430458e-03  -3.1732628788613227e-03  -2.9625846341315987e-03  -2.6941546608534542e-03  -2.3797006317910173e-03  -2.0321630261225963e-03  -1.6651890216958689e-03  -1.2926046914529465e-03  -9.2788584020099627e-04  -5.8364781804137809e-04  -2.7117386415818575e-04  -5.3429793613310580e-16  2.2242773624951939e-04  3.9101075548582723e-04  5.0316045566507392e-04  5.5885990262192716e-04  5.6062264894083487e-04  5.1335068530174144e-04  4.2409743842867413e-04  3.0174541888073535e-04  1.5661143793672751e-04  0.0000000000000000e+00  0.0000000000000000e+00  -5.5857913165501482e-04  -1.1008683036476440e-03  -1.6111052549529646e-03  -2.0746822089714066e-03  -2.4786444114711752e-03  -2.8121401644381587e-03  -3.0667919456823095e-03  -3.2369747947255407e-03  -3.3199916675521893e-03  -3.3161393879429599e-03  -3.2286629977305642e-03  -3.0636005690009458e-03  -2.8295247219644847e-03  -2.5371910308102457e-03  -2.1991070442373361e-03  -1.8290386611005782e-03  -1.4414729690063804e-03  -1.0510582840793691e-03  -6.7204296126018687e-04  -3.1773454494007821e-04  -5.1018866561986871e-16  2.7117386415713787e-04  4.8804302613397732e-04  6.4537819659107984e-04  7.4063586154142686e-04  7.7402213628976720e-04  7.4844730486616352e-04  6.6937316247137936e-04  5.4455943682210942e-04  3.8371947797078034e-04  1.9809892404035754e-04  0.0000000000000000e+00  0.0000000000000000e+00  -5.4940565668487313e-04  -1.0821681339404127e-03  -1.5821134720464401e-03  -2.0342669200883296e-03  -2.4253730761954724e-03  -2.7443647236456278e-03  -2.9827491259760324e-03  -3.1348973218613373e-03  -3.1982256541783754e-03  -3.1732628788611380e-03  -3.0636005690008452e-03  -2.8757289887092075e-03  -2.6187649866876708e-03  -2.3040825819427803e-03  -1.9448606245027658e-03  -1.5555650693683260e-03  -1.1513858809262386e-03  -7.4765029251611516e-04  -3.5923501640627717e-04  -4.5466655183726610e-16  3.1773454493910964e-04  5.8364781804037509e-04  7.8979726352862802e-04  9.3090216198979630e-04  1.0045212829880635e-03  1.0111180118697292e-03  9.5401072645650512e-04  8.3921064489130503e-04  6.7515372329341827e-04  4.7233728310300510e-04  2.4287573481036756e-04  0.0000000000000000e+00  0.0000000000000000e+00  -5.3056563749415251e-04  -1.0443316188860218e-03  -1.5249112166329289e-03  -1.9571490670344293e-03  -2.3276575583487304e-03  -2.6252995290588859e-03  -2.8415856397124733e-03  -2.9709714553248254e-03  -3.0110431038150032e-03  -2.9625846341313038e-03  -2.8295247219642713e-03  -2.6187649866875563e-03  -2.3398967121296115e-03  -2.0048170310852527e-03  -1.6272594745009869e-03  -1.2222570529964024e-03  -8.0555860507955748e-04  -3.9302091441695134e-04  -3.7005581746166718e-16  3.5923501640544890e-04  6.7204296125929187e-04  9.2788584020005952e-04  1.1187200736641066e-03  1.2392888234722451e-03  1.2873043308926357e-03  1.2635134456224465e-03  1.1716440446363386e-03  1.0182346457503159e-03  8.1235403556675348e-04  5.6522198123470013e-04  2.8974591640214302e-04  0.0000000000000000e+00  0.0000000000000000e+00  -5.0319290691430425e-04  -9.8961744275178612e-04  -1.4428658762761866e-03  -1.8477813824472370e-03  -2.1910052440081863e-03  -2.4614684203742385e-03  -2.6507958609578849e-03  -2.7536082396437669e-03  -2.7677097120181191e-03  -2.6941546608530440e-03  -2.5371910308099131e-03  -2.3040825819425448e-03  -2.0048170310851283e-03  -1.6517114217033911e-03  -1.2589299977388540e-03  -8.4193320375759197e-04  -4.1687906344678026e-04  -2.6130801694521332e-16  3.9302091441631708e-04  7.4765029251538614e-04  1.0510582840785663e-03  1.2926046914520941e-03  1.4642387206432641e-03  1.5607970836683817e-03  1.5801890982425162e-03  1.5234617969075086e-03  1.3947426910056989e-03  1.2010625570091108e-03  9.5206524172675828e-04  6.5961584060048376e-04  3.3732252193616761e-04  0.0000000000000000e+00  0.0000000000000000e+00  -4.6863410555330112e-04  -9.2070717839013523e-04  -1.3399719986635539e-03  -1.7114392703243349e-03  -2.0219301809625383e-03  -2.2605718604018846e-03  -2.4192045191336431e-03  -2.4926847310089680e-03  -2.4790733067415107e-03  -2.3797006317904895e-03  -2.1991070442368803e-03  -1.9448606245024019e-03  -1.6272594745007319e-03  -1.2589299977387219e-03  -8.5433668313524848e-04  -4.2922229010593964e-04  -1.3515154219509161e-16  4.1687906344638187e-04  8.0555860507904248e-04  1.1513858809256232e-03  1.4414729690056841e-03  1.6651890216951154e-03  1.8145645993157208e-03  1.8845925776832264e-03  1.8734141113525954e-03  1.7823825655076397e-03  1.6160030321084309e-03  1.3817498388863951e-03  1.0897691585191418e-03  7.5247824902878371e-04  3.8407683507059683e-04  0.0000000000000000e+00  0.0000000000000000e+00  -4.2839416720275340e-04  -8.4059679116012839e-04  -1.2206898330764820e-03  -1.5540078849052958e-03  -1.8276906681223976e-03  -2.0311774689393642e-03  -2.1566130543336859e-03  -2.1991494711340932e-03  -2.1571321303774050e-03  -2.0321630261219523e-03  -1.8290386610999992e-03  -1.5555650693678336e-03  -1.2222570529960152e-03  -8.4193320375732536e-04  -4.2922229010580379e-04  1.7609808405047666e-19  4.2922229010580406e-04  8.4193320375732547e-04  1.2222570529960156e-03  1.5555650693678332e-03  1.8290386610999988e-03  2.0321630261219523e-03  2.1571321303774059e-03  2.1991494711340940e-03  2.1566130543336868e-03  2.0311774689393651e-03  1.8276906681223989e-03  1.5540078849052971e-03  1.2206898330764829e-03  8.4059679116012904e-04  4.2839416720275372e-04  0.0000000000000000e+00  0.0000000000000000e+00  -3.8407683507059656e-04  -7.5247824902878295e-04  -1.0897691585191409e-03  -1.3817498388863942e-03  -1.6160030321084300e-03  -1.7823825655076389e-03  -1.8734141113525950e-03  -1.8845925776832259e-03  -1.8145645993157208e-03  -1.6651890216951154e-03  -1.4414729690056841e-03  -1.1513858809256228e-03  -8.0555860507904183e-04  -4.1687906344638139e-04  1.3544924746310887e-16  4.2922229010593997e-04  8.5433668313524827e-04  1.2589299977387215e-03  1.6272594745007306e-03  1.9448606245023997e-03  2.1991070442368785e-03  2.3797006317904899e-03  2.4790733067415124e-03  2.4926847310089693e-03  2.4192045191336435e-03  2.2605718604018854e-03  2.0219301809625396e-03  1.7114392703243360e-03  1.3399719986635548e-03  9.2070717839013599e-04  4.6863410555330145e-04  0.0000000000000000e+00  0.0000000000000000e+00  -3.3732252193616733e-04  -6.5961584060048322e-04  -9.5206524172675774e-04  -1.2010625570091100e-03  -1.3947426910056984e-03  -1.5234617969075081e-03  -1.5801890982425160e-03  -1.5607970836683817e-03  -1.4642387206432643e-03  -1.2926046914520939e-03  -1.0510582840785659e-03  -7.4765029251538549e-04  -3.9302091441631632e-04  2.6196771504900938e-16  4.1687906344678070e-04  8.4193320375759218e-04  1.2589299977388536e-03  1.6517114217033902e-03  2.0048170310851265e-03  2.3040825819425417e-03  2.5371910308099118e-03  2.6941546608530448e-03  2.7677097120181208e-03  2.7536082396437686e-03  2.6507958609578858e-03  2.4614684203742398e-03  2.1910052440081876e-03  1.8477813824472381e-03  1.4428658762761877e-03  9.8961744275178655e-04  5.0319290691430447e-04  0.0000000000000000e+00  0.0000000000000000e+00  -2.8974591640214275e-04  -5.6522198123469948e-04  -8.1235403556675272e-04  -1.0182346457503150e-03  -1.1716440446363384e-03  -1.2635134456224456e-03  -1.2873043308926357e-03  -1.2392888234722447e-03  -1.1187200736641064e-03  -9.2788584020005887e-04  -6.7204296125929121e-04  -3.5923501640544803e-04  3.7111490359029406e-16  3.9302091441695232e-04  8.0555860507955802e-04  1.2222570529964027e-03  1.6272594745009865e-03  2.0048170310852514e-03  2.3398967121296094e-03  2.6187649866875541e-03  2.8295247219642708e-03  2.9625846341313046e-03  3.0110431038150058e-03  2.9709714553248275e-03  2.8415856397124746e-03  2.6252995290588872e-03  2.3276575583487313e-03  1.9571490670344306e-03  1.5249112166329296e-03  1.0443316188860222e-03  5.3056563749415272e-04  0.0000000000000000e+00  0.0000000000000000e+00  -2.4287573481036735e-04  -4.7233728310300466e-04  -6.7515372329341773e-04  -8.3921064489130438e-04  -9.5401072645650447e-04  -1.0111180118697284e-03  -1.0045212829880626e-03  -9.3090216198979555e-04  -7.8979726352862694e-04  -5.8364781804037401e-04  -3.1773454493910850e-04  4.5593142963336332e-16  3.5923501640627864e-04  7.4765029251611602e-04  1.1513858809262395e-03  1.5555650693683260e-03  1.9448606245027651e-03  2.3040825819427794e-03  2.6187649866876686e-03  2.8757289887092054e-03  3.0636005690008452e-03  3.1732628788611389e-03  3.1982256541783780e-03  3.1348973218613403e-03  2.9827491259760350e-03  2.7443647236456287e-03  2.4253730761954733e-03  2.0342669200883300e-03  1.5821134720464408e-03  1.0821681339404131e-03  5.4940565668487335e-04  0.0000000000000000e+00  0.0000000000000000e+00  -1.9809892404035732e-04  -3.8371947797077996e-04  -5.4455943682210877e-04  -6.6937316247137860e-04  -7.4844730486616265e-04  -7.7402213628976623e-04  -7.4063586154142578e-04  -6.4537819659107854e-04  -4.8804302613397608e-04  -2.7117386415713657e-04  5.1157450889539172e-16  3.1773454494007957e-04  6.7204296126018828e-04  1.0510582840793700e-03  1.4414729690063813e-03  1.8290386611005782e-03  2.1991070442373356e-03  2.5371910308102453e-03  2.8295247219644842e-03  3.0636005690009467e-03  3.2286629977305642e-03  3.3161393879429617e-03  3.3199916675521919e-03  3.2369747947255450e-03  3.0667919456823121e-03  2.8121401644381596e-03  2.4786444114711760e-03  2.0746822089714070e-03  1.6111052549529648e-03  1.1008683036476444e-03  5.5857913165501525e-04  0.0000000000000000e+00  0.0000000000000000e+00  -1.5661143793672727e-04  -3.0174541888073491e-04  -4.2409743842867348e-04  -5.1335068530174058e-04  -5.6062264894083378e-04  -5.5885990262192597e-04  -5.0316045566507262e-04  -3.9101075548582582e-04  -2.2242773624951787e-04  5.3584867442703323e-16  2.7117386415818727e-04  5.8364781804137972e-04  9.2788584020099768e-04  1.2926046914529476e-03  1.6651890216958698e-03  2.0321630261225963e-03  2.3797006317910173e-03  2.6941546608534542e-03  2.9625846341315995e-03  3.1732628788613245e-03  3.3161393879430475e-03  3.3832474154421952e-03  3.3690340259299074e-03  3.2706026582993175e-03  3.0878581091128045e-03  2.8235480579258936e-03  2.4831992040370578e-03  2.0749501074653577e-03  1.6092867688290659e-03  1.0986906865431741e-03  5.5721244660370461e-04  0.0000000000000000e+00  0.0000000000000000e+00  -1.1937744662102043e-04  -2.2832986288650865e-04  -3.1660427603999561e-04  -3.7485833046219043e-04  -3.9507390935824844e-04  -3.7092207027643678e-04  -2.9806080601940145e-04  -1.7435362143653719e-04  5.2876789803324818e-16  2.2242773625058483e-04  4.8804302613502786e-04  7.8979726352964045e-04  1.1187200736650603e-03  1.4642387206441410e-03  1.8145645993165064e-03  2.1571321303780894e-03  2.4790733067420875e-03  2.7677097120185857e-03  3.0110431038153610e-03  3.1982256541786287e-03  3.3199916675523472e-03  3.3690340259299786e-03  3.3403106873020312e-03  3.2312692081602565e-03  3.0419803729783584e-03  2.7751754744119081e-03  2.4361854646776440e-03  2.0327839488186905e-03  1.5749396665865046e-03  1.0744875624627474e-03  5.4473062761345860e-04  0.0000000000000000e+00  0.0000000000000000e+00  -8.7098503752104157e-05  -1.6486407201297281e-04  -2.2413543293746689e-04  -2.5657749896020087e-04  -2.5505845868684595e-04  -2.1398189324031526e-04  -1.2955758032199297e-04  4.9293881731041296e-16  1.7435362143755975e-04  3.9101075548686140e-04  6.4537819659210398e-04  9.3090216199078900e-04  1.2392888234731868e-03  1.5607970836692547e-03  1.8845925776840165e-03  2.1991494711347910e-03  2.4926847310095669e-03  2.7536082396442639