<?xml version="1.0"?>
<VTKFile type="UnstructuredGrid"  version="0.1"  >
<UnstructuredGrid>
<Piece  NumberOfPoints="1089" NumberOfCells="2048">
<Points>
<DataArray  type="Float64"  NumberOfComponents="3"  format="ascii">0 0 0  0.03125 0 0  0.0625 0 0  0.09375 0 0  0.125 0 0  0.15625 0 0  0.1875 0 0  0.21875 0 0  0.25 0 0  0.28125 0 0  0.3125 0 0  0.34375 0 0  0.375 0 0  0.40625 0 0  0.4375 0 0  0.46875 0 0  0.5 0 0  0.53125 0 0  0.5625 0 0  0.59375 0 0  0.625 0 0  0.65625 0 0  0.6875 0 0  0.71875 0 0  0.75 0 0  0.78125 0 0  0.8125 0 0  0.84375 0 0  0.875 0 0  0.90625 0 0  0.9375 0 0  0.96875 0 0  1 0 0  0 0.03125 0  0.03125 0.03125 0  0.0625 0.03125 0  0.09375 0.03125 0  0.125 0.03125 0  0.15625 0.03125 0  0.1875 0.03125 0  0.21875 0.03125 0  0.25 0.03125 0  0.28125 0.03125 0  0.3125 0.03125 0  0.34375 0.03125 0  0.375 0.03125 0  0.40625 0.03125 0  0.4375 0.03125 0  0.46875 0.03125 0  0.5 0.03125 0  0.53125 0.03125 0  0.5625 0.03125 0  0.59375 0.03125 0  0.625 0.03125 0  0.65625 0.03125 0  0.6875 0.03125 0  0.71875 0.03125 0  0.75 0.03125 0  0.78125 0.03125 0  0.8125 0.03125 0  0.84375 0.03125 0  0.875 0.03125 0  0.90625 0.03125 0  0.9375 0.03125 0  0.96875 0.03125 0  1 0.03125 0  0 0.0625 0  0.03125 0.0625 0  0.0625 0.0625 0  0.09375 0.0625 0  0.125 0.0625 0  0.15625 0.0625 0  0.1875 0.0625 0  0.21875 0.0625 0  0.25 0.0625 0  0.28125 0.0625 0  0.3125 0.0625 0  0.34375 0.0625 0  0.375 0.0625 0  0.40625 0.0625 0  0.4375 0.0625 0  0.46875 0.0625 0  0.5 0.0625 0  0.53125 0.0625 0  0.5625 0.0625 0  0.59375 0.0625 0  0.625 0.0625 0  0.65625 0.0625 0  0.6875 0.0625 0  0.71875 0.0625 0  0.75 0.0625 0  0.78125 0.0625 0  0.8125 0.0625 0  0.84375 0.0625 0  0.875 0.0625 0  0.90625 0.0625 0  0.9375 0.0625 0  0.96875 0.0625 0  1 0.0625 0  0 0.09375 0  0.03125 0.09375 0  0.0625 0.09375 0  0.09375 0.09375 0  0.125 0.09375 0  0.15625 0.09375 0  0.1875 0.09375 0  0.21875 0.09375 0  0.25 0.09375 0  0.28125 0.09375 0  0.3125 0.09375 0  0.34375 0.09375 0  0.375 0.09375 0  0.40625 0.09375 0  0.4375 0.09375 0  0.46875 0.09375 0  0.5 0.09375 0  0.53125 0.09375 0  0.5625 0.09375 0  0.59375 0.09375 0  0.625 0.09375 0  0.65625 0.09375 0  0.6875 0.09375 0  0.71875 0.09375 0  0.75 0.09375 0  0.78125 0.09375 0  0.8125 0.09375 0  0.84375 0.09375 0  0.875 0.09375 0  0.90625 0.09375 0  0.9375 0.09375 0  0.96875 0.09375 0  1 0.09375 0  0 0.125 0  0.03125 0.125 0  0.0625 0.125 0  0.09375 0.125 0  0.125 0.125 0  0.15625 0.125 0  0.1875 0.125 0  0.21875 0.125 0  0.25 0.125 0  0.28125 0.125 0  0.3125 0.125 0  0.34375 0.125 0  0.375 0.125 0  0.40625 0.125 0  0.4375 0.125 0  0.46875 0.125 0  0.5 0.125 0  0.53125 0.125 0  0.5625 0.125 0  0.59375 0.125 0  0.625 0.125 0  0.65625 0.125 0  0.6875 0.125 0  0.71875 0.125 0  0.75 0.125 0  0.78125 0.125 0  0.8125 0.125 0  0.84375 0.125 0  0.875 0.125 0  0.90625 0.125 0  0.9375 0.125 0  0.96875 0.125 0  1 0.125 0  0 0.15625 0  0.03125 0.15625 0  0.0625 0.15625 0  0.09375 0.15625 0  0.125 0.15625 0  0.15625 0.15625 0  0.1875 0.15625 0  0.21875 0.15625 0  0.25 0.15625 0  0.28125 0.15625 0  0.3125 0.15625 0  0.34375 0.15625 0  0.375 0.15625 0  0.40625 0.15625 0  0.4375 0.15625 0  0.46875 0.15625 0  0.5 0.15625 0  0.53125 0.15625 0  0.5625 0.15625 0  0.59375 0.15625 0  0.625 0.15625 0  0.65625 0.15625 0  0.6875 0.15625 0  0.71875 0.15625 0  0.75 0.15625 0  0.78125 0.15625 0  0.8125 0.15625 0  0.84375 0.15625 0  0.875 0.15625 0  0.90625 0.15625 0  0.9375 0.15625 0  0.96875 0.15625 0  1 0.15625 0  0 0.1875 0  0.03125 0.1875 0  0.0625 0.1875 0  0.09375 0.1875 0  0.125 0.1875 0  0.15625 0.1875 0  0.1875 0.1875 0  0.21875 0.1875 0  0.25 0.1875 0  0.28125 0.1875 0  0.3125 0.1875 0  0.34375 0.1875 0  0.375 0.1875 0  0.40625 0.1875 0  0.4375 0.1875 0  0.46875 0.1875 0  0.5 0.1875 0  0.53125 0.1875 0  0.5625 0.1875 0  0.59375 0.1875 0  0.625 0.1875 0  0.65625 0.1875 0  0.6875 0.1875 0  0.71875 0.1875 0  0.75 0.1875 0  0.78125 0.1875 0  0.8125 0.1875 0  0.84375 0.1875 0  0.875 0.1875 0  0.90625 0.1875 0  0.9375 0.1875 0  0.96875 0.1875 0  1 0.1875 0  0 0.21875 0  0.03125 0.21875 0  0.0625 0.21875 0  0.09375 0.21875 0  0.125 0.21875 0  0.15625 0.21875 0  0.1875 0.21875 0  0.21875 0.21875 0  0.25 0.21875 0  0.28125 0.21875 0  0.3125 0.21875 0  0.34375 0.21875 0  0.375 0.21875 0  0.40625 0.21875 0  0.4375 0.21875 0  0.46875 0.21875 0  0.5 0.21875 0  0.53125 0.21875 0  0.5625 0.21875 0  0.59375 0.21875 0  0.625 0.21875 0  0.65625 0.21875 0  0.6875 0.21875 0  0.71875 0.21875 0  0.75 0.21875 0  0.78125 0.21875 0  0.8125 0.21875 0  0.84375 0.21875 0  0.875 0.21875 0  0.90625 0.21875 0  0.9375 0.21875 0  0.96875 0.21875 0  1 0.21875 0  0 0.25 0  0.03125 0.25 0  0.0625 0.25 0  0.09375 0.25 0  0.125 0.25 0  0.15625 0.25 0  0.1875 0.25 0  0.21875 0.25 0  0.25 0.25 0  0.28125 0.25 0  0.3125 0.25 0  0.34375 0.25 0  0.375 0.25 0  0.40625 0.25 0  0.4375 0.25 0  0.46875 0.25 0  0.5 0.25 0  0.53125 0.25 0  0.5625 0.25 0  0.59375 0.25 0  0.625 0.25 0  0.65625 0.25 0  0.6875 0.25 0  0.71875 0.25 0  0.75 0.25 0  0.78125 0.25 0  0.8125 0.25 0  0.84375 0.25 0  0.875 0.25 0  0.90625 0.25 0  0.9375 0.25 0  0.96875 0.25 0  1 0.25 0  0 0.28125 0  0.03125 0.28125 0  0.0625 0.28125 0  0.09375 0.28125 0  0.125 0.28125 0  0.15625 0.28125 0  0.1875 0.28125 0  0.21875 0.28125 0  0.25 0.28125 0  0.28125 0.28125 0  0.3125 0.28125 0  0.34375 0.28125 0  0.375 0.28125 0  0.40625 0.28125 0  0.4375 0.28125 0  0.46875 0.28125 0  0.5 0.28125 0  0.53125 0.28125 0  0.5625 0.28125 0  0.59375 0.28125 0  0.625 0.28125 0  0.65625 0.28125 0  0.6875 0.28125 0  0.71875 0.28125 0  0.75 0.28125 0  0.78125 0.28125 0  0.8125 0.28125 0  0.84375 0.28125 0  0.875 0.28125 0  0.90625 0.28125 0  0.9375 0.28125 0  0.96875 0.28125 0  1 0.28125 0  0 0.3125 0  0.03125 0.3125 0  0.0625 0.3125 0  0.09375 0.3125 0  0.125 0.3125 0  0.15625 0.3125 0  0.1875 0.3125 0  0.21875 0.3125 0  0.25 0.3125 0  0.28125 0.3125 0  0.3125 0.3125 0  0.34375 0.3125 0  0.375 0.3125 0  0.40625 0.3125 0  0.4375 0.3125 0  0.46875 0.3125 0  0.5 0.3125 0  0.53125 0.3125 0  0.5625 0.3125 0  0.59375 0.3125 0  0.625 0.3125 0  0.65625 0.3125 0  0.6875 0.3125 0  0.71875 0.3125 0  0.75 0.3125 0  0.78125 0.3125 0  0.8125 0.3125 0  0.84375 0.3125 0  0.875 0.3125 0  0.90625 0.3125 0  0.9375 0.3125 0  0.96875 0.3125 0  1 0.3125 0  0 0.34375 0  0.03125 0.34375 0  0.0625 0.34375 0  0.09375 0.34375 0  0.125 0.34375 0  0.15625 0.34375 0  0.1875 0.34375 0  0.21875 0.34375 0  0.25 0.34375 0  0.28125 0.34375 0  0.3125 0.34375 0  0.34375 0.34375 0  0.375 0.34375 0  0.40625 0.34375 0  0.4375 0.34375 0  0.46875 0.34375 0  0.5 0.34375 0  0.53125 0.34375 0  0.5625 0.34375 0  0.59375 0.34375 0  0.625 0.34375 0  0.65625 0.34375 0  0.6875 0.34375 0  0.71875 0.34375 0  0.75 0.34375 0  0.78125 0.34375 0  0.8125 0.34375 0  0.84375 0.34375 0  0.875 0.34375 0  0.90625 0.34375 0  0.9375 0.34375 0  0.96875 0.34375 0  1 0.34375 0  0 0.375 0  0.03125 0.375 0  0.0625 0.375 0  0.09375 0.375 0  0.125 0.375 0  0.15625 0.375 0  0.1875 0.375 0  0.21875 0.375 0  0.25 0.375 0  0.28125 0.375 0  0.3125 0.375 0  0.34375 0.375 0  0.375 0.375 0  0.40625 0.375 0  0.4375 0.375 0  0.46875 0.375 0  0.5 0.375 0  0.53125 0.375 0  0.5625 0.375 0  0.59375 0.375 0  0.625 0.375 0  0.65625 0.375 0  0.6875 0.375 0  0.71875 0.375 0  0.75 0.375 0  0.78125 0.375 0  0.8125 0.375 0  0.84375 0.375 0  0.875 0.375 0  0.90625 0.375 0  0.9375 0.375 0  0.96875 0.375 0  1 0.375 0  0 0.40625 0  0.03125 0.40625 0  0.0625 0.40625 0  0.09375 0.40625 0  0.125 0.40625 0  0.15625 0.40625 0  0.1875 0.40625 0  0.21875 0.40625 0  0.25 0.40625 0  0.28125 0.40625 0  0.3125 0.40625 0  0.34375 0.40625 0  0.375 0.40625 0  0.40625 0.40625 0  0.4375 0.40625 0  0.46875 0.40625 0  0.5 0.40625 0  0.53125 0.40625 0  0.5625 0.40625 0  0.59375 0.40625 0  0.625 0.40625 0  0.65625 0.40625 0  0.6875 0.40625 0  0.71875 0.40625 0  0.75 0.40625 0  0.78125 0.40625 0  0.8125 0.40625 0  0.84375 0.40625 0  0.875 0.40625 0  0.90625 0.40625 0  0.9375 0.40625 0  0.96875 0.40625 0  1 0.40625 0  0 0.4375 0  0.03125 0.4375 0  0.0625 0.4375 0  0.09375 0.4375 0  0.125 0.4375 0  0.15625 0.4375 0  0.1875 0.4375 0  0.21875 0.4375 0  0.25 0.4375 0  0.28125 0.4375 0  0.3125 0.4375 0  0.34375 0.4375 0  0.375 0.4375 0  0.40625 0.4375 0  0.4375 0.4375 0  0.46875 0.4375 0  0.5 0.4375 0  0.53125 0.4375 0  0.5625 0.4375 0  0.59375 0.4375 0  0.625 0.4375 0  0.65625 0.4375 0  0.6875 0.4375 0  0.71875 0.4375 0  0.75 0.4375 0  0.78125 0.4375 0  0.8125 0.4375 0  0.84375 0.4375 0  0.875 0.4375 0  0.90625 0.4375 0  0.9375 0.4375 0  0.96875 0.4375 0  1 0.4375 0  0 0.46875 0  0.03125 0.46875 0  0.0625 0.46875 0  0.09375 0.46875 0  0.125 0.46875 0  0.15625 0.46875 0  0.1875 0.46875 0  0.21875 0.46875 0  0.25 0.46875 0  0.28125 0.46875 0  0.3125 0.46875 0  0.34375 0.46875 0  0.375 0.46875 0  0.40625 0.46875 0  0.4375 0.46875 0  0.46875 0.46875 0  0.5 0.46875 0  0.53125 0.46875 0  0.5625 0.46875 0  0.59375 0.46875 0  0.625 0.46875 0  0.65625 0.46875 0  0.6875 0.46875 0  0.71875 0.46875 0  0.75 0.46875 0  0.78125 0.46875 0  0.8125 0.46875 0  0.84375 0.46875 0  0.875 0.46875 0  0.90625 0.46875 0  0.9375 0.46875 0  0.96875 0.46875 0  1 0.46875 0  0 0.5 0  0.03125 0.5 0  0.0625 0.5 0  0.09375 0.5 0  0.125 0.5 0  0.15625 0.5 0  0.1875 0.5 0  0.21875 0.5 0  0.25 0.5 0  0.28125 0.5 0  0.3125 0.5 0  0.34375 0.5 0  0.375 0.5 0  0.40625 0.5 0  0.4375 0.5 0  0.46875 0.5 0  0.5 0.5 0  0.53125 0.5 0  0.5625 0.5 0  0.59375 0.5 0  0.625 0.5 0  0.65625 0.5 0  0.6875 0.5 0  0.71875 0.5 0  0.75 0.5 0  0.78125 0.5 0  0.8125 0.5 0  0.84375 0.5 0  0.875 0.5 0  0.90625 0.5 0  0.9375 0.5 0  0.96875 0.5 0  1 0.5 0  0 0.53125 0  0.03125 0.53125 0  0.0625 0.53125 0  0.09375 0.53125 0  0.125 0.53125 0  0.15625 0.53125 0  0.1875 0.53125 0  0.21875 0.53125 0  0.25 0.53125 0  0.28125 0.53125 0  0.3125 0.53125 0  0.34375 0.53125 0  0.375 0.53125 0  0.40625 0.53125 0  0.4375 0.53125 0  0.46875 0.53125 0  0.5 0.53125 0  0.53125 0.53125 0  0.5625 0.53125 0  0.59375 0.53125 0  0.625 0.53125 0  0.65625 0.53125 0  0.6875 0.53125 0  0.71875 0.53125 0  0.75 0.53125 0  0.78125 0.531
[...]
<PointData  Scalars="theta_dt"> 
<DataArray  type="Float64"  Name="theta_dt"  format="ascii">6.6620902034530832e-02  -6.6620902034895582e-02  -1.3155132079323671e-02  1.1004566132897180e-01  -1.7030462684889860e-13  -6.4837789967451792e-02  -1.4754513414098462e-02  9.0130877030772105e-02  8.3471964472005417e-02  -3.9047877508803688e-02  -1.6686734662845601e-01  -1.1620098122708511e-01  2.8658708731463017e-02  2.2403139433820587e-01  1.7369502434907549e-01  -2.2576752447559215e-13  -1.0233935051265435e-01  -1.9830025347312452e-01  -7.7194445362149269e-02  -1.9613010190168687e-02  3.0680302427668428e-02  1.7830232867167789e-01  2.9157198420456171e-01  3.2369670462805966e-01  2.8084654773304119e-01  1.7313842197283655e-01  4.7277702469184842e-02  -3.6085919438514094e-02  -5.6796373885886806e-02  -1.0201140602558185e-01  -1.3364949480667490e-01  -1.7313842197344567e-01  -1.9129443316159364e-01  3.3274720086676104e-02  1.3049964013908736e-02  -4.3908874563112057e-02  -1.3429893449304266e-02  1.1675028161566617e-01  -1.8733579630333061e-13  -6.6794924572395276e-02  -1.5910608106451684e-02  9.2851485776063711e-02  9.1819507330476113e-02  -4.1426900802736637e-02  -1.7035257965296688e-01  -1.2044925530143337e-02  7.7194445362062034e-02  2.2871056992199013e-01  1.8427753319026760e-01  -2.4834521386545785e-13  -1.0542847314370495e-01  -2.1383813426243728e-01  -7.9524566737407848e-02  -2.1574392603792892e-02  3.2549524490349681e-02  1.8202639558344691e-01  1.6908587354323926e-01  1.4976677960867191e-01  2.8671237878241046e-01  1.8368701936728660e-01  5.2005668920051172e-02  -3.7175176208675005e-02  -6.1246672215050292e-02  -1.0509062962237362e-01  -1.4701499893693701e-01  -1.8368701936793286e-01  -2.4947543822035935e-02  3.4279120547952353e-02  1.3443878368141177e-02  -4.5234267947351837e-02  9.3743692772458292e-03  1.2158550462615969e-01  -2.0459296361130366e-13  -7.1053101735280094e-02  -1.6879974682070371e-02  9.8770768997096872e-02  1.0027781925700205e-01  -4.3142599482370037e-02  -9.0130877030936279e-02  -1.2408502706059496e-02  7.9524566737317906e-02  1.2599126461544263e-01  1.9190940316495220e-01  -2.7122250155088873e-13  -1.1214953944525850e-01  -2.2686639431131711e-01  -8.4594258725794139e-02  -2.3561801898110090e-02  3.3897565862227988e-02  1.5230523803636592e-01  1.7418974606086660e-01  1.5428750351351525e-01  1.0201140602522296e-01  1.9129443316092062e-01  5.6796373885284926e-02  -3.9545094093475189e-02  -6.4978174902811742e-02  -1.1179015839579357e-01  -1.6055785878273096e-01  -1.2781885366828767e-13  -2.7131312740319092e-02  3.6464414853103644e-02  1.4300925759305961e-02  -4.8117953017531988e-02  9.6573354690488913e-03  1.2412496980366045e-01  -2.2062391174801637e-13  -7.7272694181894433e-02  -1.7579060293426561e-02  1.0741661152610239e-01  1.0813512036548861e-01  -4.4043686576503531e-02  -9.2851485776232812e-02  -1.3199544887584369e-02  8.4594258725698479e-02  1.2979432243131286e-01  1.9591767082869058e-01  -2.9247422878102090e-13  -1.2196648496051209e-01  -2.3626208565271245e-01  -9.1999168571364559e-02  -2.5407994541145992e-02  3.4605558878121147e-02  1.5690258554041822e-01  1.8529434425352065e-01  1.6412333352882874e-01  1.0509062962200386e-01  1.9528985640775876e-01  6.1246672214401249e-02  -4.3006651189754767e-02  -6.7669251636178623e-02  -1.2157564569731510e-01  4.2690039290389378e-02  -1.3959338574594463e-13  -2.9825761733672844e-02  3.9656306461657694e-02  1.5552749081017591e-02  -5.2329930395372315e-02  1.0272990709501346e-02  5.8545151463623851e-02  -2.3406560073940401e-13  -8.4946754594855137e-02  -1.7946220931576662e-02  1.1808430695116988e-01  1.1472333940975653e-01  -6.3712118567007078e-02  -9.8770768997276812e-02  -1.4354959467336680e-02  9.1999168571260559e-02  1.3806871188810607e-01  5.6883086153977518e-02  -3.1029345603577371e-13  -1.3407914886919114e-01  -2.4119671450607394e-01  -1.0113573595824650e-01  -2.6955997012007044e-02  9.5083118441133332e-02  1.6690512706318986e-01  2.0151397824238185e-01  1.7848977525479526e-01  1.1179015839540024e-01  3.6085919438131678e-02  6.4978174902123181e-02  -4.7277702469685844e-02  -6.9082608505042067e-02  -4.0103945460952953e-03  4.3581674099468067e-02  -1.5053127084043343e-13  -3.2808461684886638e-02  4.3594630274016097e-02  1.7097314561734488e-02  -5.7526889703078295e-02  1.1172231050324199e-02  6.0312342201288366e-02  -2.4375944783765627e-13  -9.3441782586036096e-02  1.2044925530128769e-02  1.2989322769986372e-01  1.1947461643348818e-01  -6.5635274678039646e-02  -1.0741661152629803e-01  -1.5780570769546910e-02  1.0113573595813222e-01  1.5015447727484996e-01  5.8600107298649742e-02  -3.2314428635384304e-13  -1.4748762018878275e-01  -1.1946901513354054e-01  -1.1124972927054697e-01  -2.8072381959602422e-02  9.7953211045160984e-02  1.8151507148829005e-01  2.2152661607597282e-01  1.9621584696619176e-01  1.2157564569688742e-01  3.7175176208281049e-02  6.7669251635461516e-02  -5.2005668920602287e-02  -1.1649114313731335e-02  -4.4086724934656648e-03  2.7429482451810702e-02  -1.5970250939786798e-13  -3.5830741054797152e-02  4.7954274220500422e-02  1.8807116972299528e-02  -6.3279817411782416e-02  1.2281761097586762e-02  6.4157254668002317e-02  -2.4885066846772929e-13  -1.0204953672305897e-01  1.2408502706044487e-02  1.4185884882952585e-01  1.2196999307366396e-01  -6.9819524147634926e-02  -1.1808430695138500e-01  -1.7358693336365166e-02  1.1124972927042120e-01  1.6506653051802161e-01  6.2335864771828071e-02  -3.2989355852265188e-13  -1.6107401738396396e-01  -1.2307519825381255e-01  -1.2149793185047440e-01  -2.8658708731491091e-02  1.0419772930719849e-01  1.9954158964210381e-01  2.4368019702597371e-01  2.1583824596472906e-01  1.3364949480620469e-01  3.9545094093056135e-02  6.9082608504310000e-02  2.1984802687583925e-02  -1.1892420621003770e-02  -4.8495580389413340e-03  2.8257443881851380e-02  -1.6631660263677040e-13  -3.8638270411675286e-02  5.2371769166397686e-02  2.0539607882077805e-02  -6.9109084523791942e-02  1.3509988177039143e-02  6.9773223102642654e-02  -3.4046616880779798e-02  -1.1004566132923546e-01  1.3199544887568401e-02  1.5297424501998527e-01  2.3006614254268937e-02  -7.5931136088697046e-02  -1.2989322770010034e-01  -1.8957757055444287e-02  1.2149793185033703e-01  1.8157386860110175e-01  6.7792398888135777e-02  -5.6883086154310078e-02  -1.7369502434957995e-01  -1.3092124347172268e-01  -1.3101794177570916e-01  1.8076523698573030e-02  1.1331861768963539e-01  2.1949657671016867e-01  2.6612774849610527e-01  2.3572102755571631e-01  1.4701499893641973e-01  4.3006651189299000e-02  3.6876023891515815e-03  2.4010018506978658e-02  -1.5254910380496933e-02  -5.2962939863639398e-03  3.0058856234503790e-02  -1.6979033268489521e-13  -4.0992338064287946e-02  5.6475376155196495e-02  2.2148995531066383e-02  -7.4524149295429998e-02  1.4754513414076069e-02  7.6702500449130198e-02  -3.5074317117201742e-02  -1.1675028161594588e-01  1.4354959467319317e-02  1.6229432374109631e-01  2.3701071004294180e-02  -8.3471964472365975e-02  -1.4185884882978425e-01  -2.0443198268963295e-02  1.3101794177556103e-01  1.9830025347274435e-01  7.4524957783810714e-02  -5.8600107298992336e-02  -1.8427753319080284e-01  -1.4238135931623297e-01  -1.3900031509004077e-01  1.8622165215430985e-02  1.2457244968385114e-01  2.3971635970178368e-01  2.8698027469532722e-01  2.5419102525640713e-01  1.6055785878216608e-01  -8.3265169586311614e-03  4.0103945460813906e-03  2.5891331308029546e-02  -1.5715381241949315e-02  -5.7112868224493936e-03  3.2690040948811047e-02  -1.7535270901074460e-02  -4.2690039290524472e-02  5.9916183799006248e-02  2.3498440870156685e-02  -7.9064592936557293e-02  1.5910608106427537e-02  8.4373068811825450e-02  -3.7310305212230929e-02  -1.2158550462645100e-01  1.5780570769527821e-02  1.6901575719518178e-01  2.5212014536792865e-02  -9.1819507330872741e-02  -1.5297424502026394e-01  -2.1688716540049568e-02  1.3900031508988361e-01  2.1383813426202730e-01  8.1977762843103638e-02  -6.2335864772192565e-02  -1.9190940316550958e-01  -1.5652145323479405e-01  -1.4475702516121400e-01  1.9809328449036729e-02  1.3703021163180903e-01  2.5849941295087664e-01  3.0446477838558633e-01  2.6967781759377174e-01  1.3445846328984471e-02  -8.5778536326073431e-03  4.4086724934503793e-03  2.7468781459548050e-02  -1.6717236965851926e-02  -6.0592515584552420e-03  3.5936535092690826e-02  -1.8064574652864571e-02  -4.3581674099605984e-02  6.2397617733012632e-02  2.4471630831103697e-02  -8.2339059891083685e-02  1.6879974682044753e-02  9.2145423020175490e-02  -4.0576241347481258e-02  -1.2412496980395783e-01  1.7358693336344166e-02  1.7254586245868161e-01  2.7418933747176993e-02  -1.0027781925743523e-01  -1.6229432374139197e-01  -2.2586956611347585e-02  1.4475702516105035e-01  2.2686639431088221e-01  8.9529464102729037e-02  -6.7792398888532127e-02  -1.9591767082925959e-01  -1.7217424812721280e-01  -1.4778045649643592e-01  2.1543326636099071e-02  1.4965328386381385e-01  2.7424869726830148e-01  3.1707421351466836e-01  4.0053580400305567e-03  -5.2100098036030592e-14  -9.1246918943280915e-03  4.8495580389245185e-03  2.8606403419387524e-02  -1.8180570701069414e-02  -6.3101959857951098e-03  3.9530337739707502e-02  -1.9216191482084640e-02  -5.0058098902642564e-03  6.3700869941235957e-02  2.4982751416763305e-02  -8.4058814034346632e-02  1.7579060293399881e-02  9.9365507579282350e-02  -4.4605925192831151e-02  -4.5969810679152741e-02  1.8957757055421350e-02  8.8985196108156833e-02  3.0141946789009107e-02  -1.0813512036595573e-01  -1.6901575719548967e-01  -2.3058713421146574e-02  1.4778045649626886e-01  2.3626208565225951e-01  9.6544574350925408e-02  -7.4524957784246421e-02  -1.2599126461568416e-01  -1.8803475030932007e-01  -1.4970133248818284e-02  2.3682824835972970e-02  1.6137941554382340e-01  2.8560673078461324e-01  -1.1678391985798005e-03  8.3265169585755583e-03  -5.3672744248038270e-14  -9.9234165579618477e-03  5.2962939863455752e-03  2.9203883896689778e-02  -1.9986108858878329e-02  -6.4419923131484600e-03  4.3171828931333485e-02  -2.0898269765450068e-02  -5.1569107184529167e-03  4.3908874562968325e-02  -1.3049964014123588e-02  -3.3274720086754299e-02  1.7946220931549423e-02  1.0541943092226787e-01  -4.9066702828102625e-02  -4.7357413608062497e-02  2.0443198268938565e-02  9.1671222370285479e-02  3.3156266557934418e-02  -1.1472333941025212e-01  -1.7254586245899592e-01  1.4970133248803622e-02  1.1946901513337041e-01  2.4119671450561153e-01  1.0242663007167260e-01  -8.1977762843582894e-02  -1.2979432243156169e-01  -2.0276827426293609e-01  -1.5422008086572398e-02  2.6051205604036013e-02  1.7121158602872316e-01  -2.3878615676810773e-03  -1.2030905313241357e-03  8.5778536325500643e-03  -5.7094382273523931e-14  -1.0908925073939237e-02  5.7112868224295944e-03  6.2121124511061712e-03  -2.1984802687744675e-02  5.0058098902514853e-03  4.6554571613922013e-02  -2.2973706456306264e-02  -5.4856638324496543e-03  4.5234267947203761e-02  -1.3443878368362520e-02  -3.4279120548032928e-02  4.5969810679069960e-02  1.0978538577132309e-01  -5.3586673472603062e-02  -5.0376449237043215e-02  2.1688716540023328e-02  9.7515263786453310e-02  3.6210585329834059e-02  -1.1947461643400431e-01  -6.0698623546197351e-02  1.5422008086557297e-02  1.2307519825363734e-01  1.0233935051235719e-01  1.0666863781466207e-01  -8.9529464103252451e-02  -1.3806871188837072e-01  -2.1512209420189060e-01  -1.6405161268651259e-02  2.8451013983184864e-02  5.9492191714020301e-03  -2.5968816583907236e-03  -1.2797875656895975e-03  9.1246918942671680e-03  -6.2092106230115159e-14  -1.1999862853714311e-02  6.0592515584342328e-03  6.3996256321378411e-03  -2.4010018507154212e-02  5.1569107184397615e-03  4.9390946274327573e-02  -2.5271172443539117e-02  -5.9658482649897551e-03  4.8117953017374496e-02  -1.4300925759541415e-02  -3.6464414853189360e-02  4.7357413607977183e-02  1.1207839072303982e-01  -5.7785474683041148e-02  -5.4786122784150210e-02  2.2586956611320257e-02  1.0605120638802290e-01  3.9047877508295400e-02  -1.2196999307419086e-01  -6.2530817035123143e-02  1.6405161268635188e-02  1.3092124347153625e-01  1.0542847314339872e-01  1.0889654559112488e-01  -9.6544574351489845e-02  -1.5015447727513784e-01  -2.2403139433852484e-01  -1.7841177636974431e-02  -1.0403284304542949e-03  6.4972546916741416e-03  -2.8547816441850502e-03  -1.3918130351263768e-03  9.9234165578955865e-03  -6.8258561009810455e-14  -1.3105277008540195e-02  6.3101959857732298e-03  6.8076018353034930e-03  -2.5891331308218864e-02  5.4856638324356603e-03  5.1436476585953239e-02  -2.7599125026721114e-02  -6.5583250834156757e-03  5.2329930395201035e-02  -1.5552749081273650e-02  -3.9656306461750897e-02  5.0376449236952503e-02  3.4046616880532087e-02  -6.1306101131711338e-02  -6.0227010027550612e-02  2.3058713421118680e-02  1.1658330150008560e-01  4.1426900802197388e-02  -8.8985196108385886e-02  -6.6517157296453827e-02  1.7841177636956956e-02  1.4238135931603033e-01  1.1214953944493279e-01  -1.7232285569043448e-13  -1.0242663007227143e-01  -1.6506653051833806e-01  -2.2871056992231575e-01  -1.9014589062176757e-03  -1.0620569895487832e-03  7.0063491940203920e-03  -3.1402716560369019e-03  -1.5300359536901322e-03  1.0908925073866392e-02  -7.5084700385960213e-14  -1.4132145246493383e-02  6.4419923131261237e-03  7.4035013515858063e-03  -2.7468781459748896e-02  5.9658482649745364e-03  5.2510791666068944e-02  -2.9761663435239331e-02  -7.2141848090120034e-03  5.7526889702890008e-02  -1.7097314562015985e-02  -4.3594630274118550e-02  5.4786122784051566e-02  3.5074317116946564e-02  -6.3845098612261453e-02  -6.6249960974285940e-02  6.0698623546111559e-02  1.2824211547445141e-01  4.3142599481808451e-02  -9.1671222370521416e-02  -7.2339698452118337e-02  1.9613010190149462e-02  1.5652145323457117e-01  1.2196648496015781e-01  -1.7752443680946607e-13  -1.0666863781528571e-01  -1.8157386860144992e-01  2.9918698070723411e-03  -2.0902954761543753e-03  1.1678391985710421e-03  7.4332166449911892e-03  -3.4295500237065154e-03  -1.6830458987563347e-03  1.1999862853634186e-02  -8.2001420320955974e-14  -1.4993157544205897e-02  1.4476050774567577e-02  8.1387535288396148e-03  -2.8606403419596686e-02  6.5583250833989443e-03  1.7535270900909426e-02  -3.1574916679610009e-02  -7.8787475711558520e-03  6.3279817411575290e-02  -1.8807116972609172e-02  -4.7954274220613165e-02  6.0227010027442164e-02  3.7310305211959501e-02  -6.5178583267183524e-02  -7.2352834441291466e-02  6.2530817035034686e-02  1.4005563796370174e-01  4.4043686575930219e-02  -9.7515263786704318e-02  -7.9523856090910547e-02  2.1574392603771760e-02  1.7217424812696766e-01  1.3407914886880176e-01  -1.8884162157335846e-13  -1.0889654559176154e-01  7.9952082539784639e-04  3.0543587461447819e-03  -2.2993336985615890e-03  1.2030905313151132e-03  7.7410639552200509e-03  -3.6982735300864944e-03  -1.8380862339990854e-03  1.3105277008452687e-02  -8.8426668252744548e-14  -1.5614100460612288e-02  1.4913011687764148e-02  8.9526626578059453e-03  -2.9203883896903312e-02  7.2141848089936024e-03  1.8064574652694572e-02  -3.2882594584715645e-02  -8.4960893969256209e-03  6.9109084523565734e-02  -2.0539607882415972e-02  -5.2371769166520789e-02  6.6249960974166647e-02  4.0576241347186050e-02  -5.8545151463835911e-02  -7.8022064291620563e-02  6.6517157296359819e-02  1.5102974298090019e-01  -2.3006614254568417e-02  -1.0605120638829589e-01  -8.7476571726498240e-02  2.3561801898087011e-02  1.8803475030905242e-01  1.4748762018835440e-01  -2.0537176444481158e-13  -2.1985767121612135e-04  8.7317180360042552e-04  -2.3430870843996602e-14  -2.5111457874198721e-03  1.2797875656799993e-03  7.9027457478936993e-03  -3.9235938147403216e-03  -1.9821100780645462e-03  1.4132145246399023e-02  -9.3814134025518786e-14  -1.5940220457561268e-02  1.5863716343921745e-02  9.7773720854021570e-03  -1.4476050774632118e-02  7.8787475711357535e-03  1.9216191481903799e-02  -3.3569388657335657e-02  -9.0137204660680047e-03  7.4524149295186082e-02  -2.2148995531431050e-02  -5.6475376155329257e-02  7.2352834441161182e-02  4.4605925192506647e-02  -6.0312342201506788e-02  -8.2775621212829706e-02  7.2339698452016071e-02  1.6023135135378194e-01  -2.3701071004602708e-02  -1.1658330150038569e-01  -9.5534817206544054e-02  2.5407994541121096e-02  2.0276827426264746e-01  1.6107401738349614e-01  -3.6231932651952951e-04  -2.3910278617704996e-04  9.4158946396802237e-04  -2.4138133817885244e-14  -2.7079074314729527e-03  1.3918130351159379e-03  2.1789853364670418e-03  -4.0860897919176211e-03  -2.1028717262691551e-03  1.4993157544105783e-02  -9.7699454499887966e-14  -2.0922346547628005e-03  1.7252337641771406e-02  1.0543481251855256e-02  -1.4913011687830638e-02  8.4960893969039490e-03  2.0898269765253399e-02  -2.7429482451939650e-02  -9.3870244787397847e-03  7.9064592936298514e-02  -2.3498440870543560e-02  -5.9916183799147087e-02  7.8022064291480092e-02  4.9066702827745681e-02  -6.4157254668234631e-02  -8.6203780724373569e-02  7.9523856090798206e-02  1.6686734662802652e-01  -2.5212014537121033e-02  -1.2824211547478148e-01  -1.0302047884834949e-01  2.6955997011980631e-02  2.1512209420158429e-01  3.8407650241429925e-04  -3.7325596844281446e-04  -2.6284842162377961e-04  9.9895655818708039e-04  -2.5676940109470679e-14  -2.8728888662727290e-03  1.5300359536786574e-03  2.2447582076245082e-03  -4.1714328825320883e-03  -2.1899623406836433e-03  1.5614100460508026e-02  -9.9740029676395506e-14  -2.1553889486792613e-03  1.8965691663259253e-02  1.1185851313881131e-02  -1.5863716343992470e-02  9.0137204660450110e-03  2.2973706456090055e-02  -2.8257443881984232e-02  -9.5830842134705160e-03  8.2339059890814165e-02  -2.4471630831506601e-02  -6.2397617733159300e-02  8.2775621212680658e-02  5.3586673472213228e-02  -6.9773223102895313e-02  -8.8004254390963585e-02  8.7476571726374588e-02  1.7035257965252840e-01  -2.7418933747533899e-02  -1.4005563796406223e-01  -1.0929708425096307e-01  2.8072381959574923e-02  -7.7386212106314941e-05  3.6231932649687278e-04  -3.9705104046226124e-04  -2.8913435461535008e-04  1.0403284304411466e-03  -2.7924556312800154e-14  -2.9918698071369318e-03  1.6830458987437112e-03  2.3878615676042763e-03  -4.1280700392759629e-03  -2.2357024403879926e-03  1.5940220457454829e-02  -7.0235582864723823e-03  -2.2927950174360706e-03  2.0862339537800319e-02  1.1649114313476157e-02  -1.7252337641848321e-02  9.3870244787158386e-03  2.5271172443301290e-02  -3.0058856234645118e-02  7.0152251567499766e-03  8.4058814034071505e-02  -2.4982751417174626e-02  -6.3700869941385685e-02  8.6203780724218360e-02  5.7785474682620769e-02  -7.6702500449407948e-02  -9.3743692772600522e-03  9.5534817206408981e-02  6.3712118566731840e-02  -3.0141946789401464e-02  -1.5102974298128891e-01  -1.1382363244799280e-01  -4.0423381168596512e-05  2.0062580183747829e-04  3.7325596841947392e-04  -4.3180667521808036e-04  -3.1576909303982495e-04  1.0620569895353601e-03  -3.0697783445855935e-14  -3.0543587462107218e-03  1.8380862339852995e-03  2.5968816583071992e-03  -4.2526762099914222e-03  2.0922346547524798e-03  7.0235582863805842e-03  -7.2355650340680819e-03  -2.4934935122774269e-03  2.2784155287613666e-02  1.1892420620743261e-02  -1.8965691663343810e-02  9.5830842134460702e-03  2.7599125026461370e-02  -3.2690040948964751e-02  7.2269803680648252e-03  3.4800025010111695e-02  -3.4800025010302223e-02  -7.0152251567635951e-03  8.8004254390805114e-02  6.1306101131265341e-02  -8.4373068812130983e-02  -9.6573354690635480e-03  1.0302047884820387e-01  6.5635274677756136e-02  -3.3156266558366010e-02  -1.6023135135419433e-01  -5.6955076201882748e-15  -4.1643564616761495e-05  2.0668170996787218e-04  3.9705104043743258e-04  -4.7469000609487102e-04  -3.4051128291941163e-04  1.5954716539352597e-03  -3.3767689187205487e-14  -5.5477498307220053e-04  1.9821100780496796e-03  2.8547816440932321e-03  -4.5237843643078784e-03  2.1553889486686287e-03  7.2355650339735126e-03  -7.6968323831350495e-03  -2.7411258752373558e-03  2.4569415177824093e-02  -6.2121124512422490e-03  -2.0862339537893342e-02  2.2765277898187591e-02  2.976166343