<?xml version="1.0"?>
<VTKFile type="UnstructuredGrid"  version="0.1"  >
<UnstructuredGrid>
<Piece  NumberOfPoints="1089" NumberOfCells="2048">
<Points>
<DataArray  type="Float64"  NumberOfComponents="3"  format="ascii">0 0 0  0.03125 0 0  0.0625 0 0  0.09375 0 0  0.125 0 0  0.15625 0 0  0.1875 0 0  0.21875 0 0  0.25 0 0  0.28125 0 0  0.3125 0 0  0.34375 0 0  0.375 0 0  0.40625 0 0  0.4375 0 0  0.46875 0 0  0.5 0 0  0.53125 0 0  0.5625 0 0  0.59375 0 0  0.625 0 0  0.65625 0 0  0.6875 0 0  0.71875 0 0  0.75 0 0  0.78125 0 0  0.8125 0 0  0.84375 0 0  0.875 0 0  0.90625 0 0  0.9375 0 0  0.96875 0 0  1 0 0  0 0.03125 0  0.03125 0.03125 0  0.0625 0.03125 0  0.09375 0.03125 0  0.125 0.03125 0  0.15625 0.03125 0  0.1875 0.03125 0  0.21875 0.03125 0  0.25 0.03125 0  0.28125 0.03125 0  0.3125 0.03125 0  0.34375 0.03125 0  0.375 0.03125 0  0.40625 0.03125 0  0.4375 0.03125 0  0.46875 0.03125 0  0.5 0.03125 0  0.53125 0.03125 0  0.5625 0.03125 0  0.59375 0.03125 0  0.625 0.03125 0  0.65625 0.03125 0  0.6875 0.03125 0  0.71875 0.03125 0  0.75 0.03125 0  0.78125 0.03125 0  0.8125 0.03125 0  0.84375 0.03125 0  0.875 0.03125 0  0.90625 0.03125 0  0.9375 0.03125 0  0.96875 0.03125 0  1 0.03125 0  0 0.0625 0  0.03125 0.0625 0  0.0625 0.0625 0  0.09375 0.0625 0  0.125 0.0625 0  0.15625 0.0625 0  0.1875 0.0625 0  0.21875 0.0625 0  0.25 0.0625 0  0.28125 0.0625 0  0.3125 0.0625 0  0.34375 0.0625 0  0.375 0.0625 0  0.40625 0.0625 0  0.4375 0.0625 0  0.46875 0.0625 0  0.5 0.0625 0  0.53125 0.0625 0  0.5625 0.0625 0  0.59375 0.0625 0  0.625 0.0625 0  0.65625 0.0625 0  0.6875 0.0625 0  0.71875 0.0625 0  0.75 0.0625 0  0.78125 0.0625 0  0.8125 0.0625 0  0.84375 0.0625 0  0.875 0.0625 0  0.90625 0.0625 0  0.9375 0.0625 0  0.96875 0.0625 0  1 0.0625 0  0 0.09375 0  0.03125 0.09375 0  0.0625 0.09375 0  0.09375 0.09375 0  0.125 0.09375 0  0.15625 0.09375 0  0.1875 0.09375 0  0.21875 0.09375 0  0.25 0.09375 0  0.28125 0.09375 0  0.3125 0.09375 0  0.34375 0.09375 0  0.375 0.09375 0  0.40625 0.09375 0  0.4375 0.09375 0  0.46875 0.09375 0  0.5 0.09375 0  0.53125 0.09375 0  0.5625 0.09375 0  0.59375 0.09375 0  0.625 0.09375 0  0.65625 0.09375 0  0.6875 0.09375 0  0.71875 0.09375 0  0.75 0.09375 0  0.78125 0.09375 0  0.8125 0.09375 0  0.84375 0.09375 0  0.875 0.09375 0  0.90625 0.09375 0  0.9375 0.09375 0  0.96875 0.09375 0  1 0.09375 0  0 0.125 0  0.03125 0.125 0  0.0625 0.125 0  0.09375 0.125 0  0.125 0.125 0  0.15625 0.125 0  0.1875 0.125 0  0.21875 0.125 0  0.25 0.125 0  0.28125 0.125 0  0.3125 0.125 0  0.34375 0.125 0  0.375 0.125 0  0.40625 0.125 0  0.4375 0.125 0  0.46875 0.125 0  0.5 0.125 0  0.53125 0.125 0  0.5625 0.125 0  0.59375 0.125 0  0.625 0.125 0  0.65625 0.125 0  0.6875 0.125 0  0.71875 0.125 0  0.75 0.125 0  0.78125 0.125 0  0.8125 0.125 0  0.84375 0.125 0  0.875 0.125 0  0.90625 0.125 0  0.9375 0.125 0  0.96875 0.125 0  1 0.125 0  0 0.15625 0  0.03125 0.15625 0  0.0625 0.15625 0  0.09375 0.15625 0  0.125 0.15625 0  0.15625 0.15625 0  0.1875 0.15625 0  0.21875 0.15625 0  0.25 0.15625 0  0.28125 0.15625 0  0.3125 0.15625 0  0.34375 0.15625 0  0.375 0.15625 0  0.40625 0.15625 0  0.4375 0.15625 0  0.46875 0.15625 0  0.5 0.15625 0  0.53125 0.15625 0  0.5625 0.15625 0  0.59375 0.15625 0  0.625 0.15625 0  0.65625 0.15625 0  0.6875 0.15625 0  0.71875 0.15625 0  0.75 0.15625 0  0.78125 0.15625 0  0.8125 0.15625 0  0.84375 0.15625 0  0.875 0.15625 0  0.90625 0.15625 0  0.9375 0.15625 0  0.96875 0.15625 0  1 0.15625 0  0 0.1875 0  0.03125 0.1875 0  0.0625 0.1875 0  0.09375 0.1875 0  0.125 0.1875 0  0.15625 0.1875 0  0.1875 0.1875 0  0.21875 0.1875 0  0.25 0.1875 0  0.28125 0.1875 0  0.3125 0.1875 0  0.34375 0.1875 0  0.375 0.1875 0  0.40625 0.1875 0  0.4375 0.1875 0  0.46875 0.1875 0  0.5 0.1875 0  0.53125 0.1875 0  0.5625 0.1875 0  0.59375 0.1875 0  0.625 0.1875 0  0.65625 0.1875 0  0.6875 0.1875 0  0.71875 0.1875 0  0.75 0.1875 0  0.78125 0.1875 0  0.8125 0.1875 0  0.84375 0.1875 0  0.875 0.1875 0  0.90625 0.1875 0  0.9375 0.1875 0  0.96875 0.1875 0  1 0.1875 0  0 0.21875 0  0.03125 0.21875 0  0.0625 0.21875 0  0.09375 0.21875 0  0.125 0.21875 0  0.15625 0.21875 0  0.1875 0.21875 0  0.21875 0.21875 0  0.25 0.21875 0  0.28125 0.21875 0  0.3125 0.21875 0  0.34375 0.21875 0  0.375 0.21875 0  0.40625 0.21875 0  0.4375 0.21875 0  0.46875 0.21875 0  0.5 0.21875 0  0.53125 0.21875 0  0.5625 0.21875 0  0.59375 0.21875 0  0.625 0.21875 0  0.65625 0.21875 0  0.6875 0.21875 0  0.71875 0.21875 0  0.75 0.21875 0  0.78125 0.21875 0  0.8125 0.21875 0  0.84375 0.21875 0  0.875 0.21875 0  0.90625 0.21875 0  0.9375 0.21875 0  0.96875 0.21875 0  1 0.21875 0  0 0.25 0  0.03125 0.25 0  0.0625 0.25 0  0.09375 0.25 0  0.125 0.25 0  0.15625 0.25 0  0.1875 0.25 0  0.21875 0.25 0  0.25 0.25 0  0.28125 0.25 0  0.3125 0.25 0  0.34375 0.25 0  0.375 0.25 0  0.40625 0.25 0  0.4375 0.25 0  0.46875 0.25 0  0.5 0.25 0  0.53125 0.25 0  0.5625 0.25 0  0.59375 0.25 0  0.625 0.25 0  0.65625 0.25 0  0.6875 0.25 0  0.71875 0.25 0  0.75 0.25 0  0.78125 0.25 0  0.8125 0.25 0  0.84375 0.25 0  0.875 0.25 0  0.90625 0.25 0  0.9375 0.25 0  0.96875 0.25 0  1 0.25 0  0 0.28125 0  0.03125 0.28125 0  0.0625 0.28125 0  0.09375 0.28125 0  0.125 0.28125 0  0.15625 0.28125 0  0.1875 0.28125 0  0.21875 0.28125 0  0.25 0.28125 0  0.28125 0.28125 0  0.3125 0.28125 0  0.34375 0.28125 0  0.375 0.28125 0  0.40625 0.28125 0  0.4375 0.28125 0  0.46875 0.28125 0  0.5 0.28125 0  0.53125 0.28125 0  0.5625 0.28125 0  0.59375 0.28125 0  0.625 0.28125 0  0.65625 0.28125 0  0.6875 0.28125 0  0.71875 0.28125 0  0.75 0.28125 0  0.78125 0.28125 0  0.8125 0.28125 0  0.84375 0.28125 0  0.875 0.28125 0  0.90625 0.28125 0  0.9375 0.28125 0  0.96875 0.28125 0  1 0.28125 0  0 0.3125 0  0.03125 0.3125 0  0.0625 0.3125 0  0.09375 0.3125 0  0.125 0.3125 0  0.15625 0.3125 0  0.1875 0.3125 0  0.21875 0.3125 0  0.25 0.3125 0  0.28125 0.3125 0  0.3125 0.3125 0  0.34375 0.3125 0  0.375 0.3125 0  0.40625 0.3125 0  0.4375 0.3125 0  0.46875 0.3125 0  0.5 0.3125 0  0.53125 0.3125 0  0.5625 0.3125 0  0.59375 0.3125 0  0.625 0.3125 0  0.65625 0.3125 0  0.6875 0.3125 0  0.71875 0.3125 0  0.75 0.3125 0  0.78125 0.3125 0  0.8125 0.3125 0  0.84375 0.3125 0  0.875 0.3125 0  0.90625 0.3125 0  0.9375 0.3125 0  0.96875 0.3125 0  1 0.3125 0  0 0.34375 0  0.03125 0.34375 0  0.0625 0.34375 0  0.09375 0.34375 0  0.125 0.34375 0  0.15625 0.34375 0  0.1875 0.34375 0  0.21875 0.34375 0  0.25 0.34375 0  0.28125 0.34375 0  0.3125 0.34375 0  0.34375 0.34375 0  0.375 0.34375 0  0.40625 0.34375 0  0.4375 0.34375 0  0.46875 0.34375 0  0.5 0.34375 0  0.53125 0.34375 0  0.5625 0.34375 0  0.59375 0.34375 0  0.625 0.34375 0  0.65625 0.34375 0  0.6875 0.34375 0  0.71875 0.34375 0  0.75 0.34375 0  0.78125 0.34375 0  0.8125 0.34375 0  0.84375 0.34375 0  0.875 0.34375 0  0.90625 0.34375 0  0.9375 0.34375 0  0.96875 0.34375 0  1 0.34375 0  0 0.375 0  0.03125 0.375 0  0.0625 0.375 0  0.09375 0.375 0  0.125 0.375 0  0.15625 0.375 0  0.1875 0.375 0  0.21875 0.375 0  0.25 0.375 0  0.28125 0.375 0  0.3125 0.375 0  0.34375 0.375 0  0.375 0.375 0  0.40625 0.375 0  0.4375 0.375 0  0.46875 0.375 0  0.5 0.375 0  0.53125 0.375 0  0.5625 0.375 0  0.59375 0.375 0  0.625 0.375 0  0.65625 0.375 0  0.6875 0.375 0  0.71875 0.375 0  0.75 0.375 0  0.78125 0.375 0  0.8125 0.375 0  0.84375 0.375 0  0.875 0.375 0  0.90625 0.375 0  0.9375 0.375 0  0.96875 0.375 0  1 0.375 0  0 0.40625 0  0.03125 0.40625 0  0.0625 0.40625 0  0.09375 0.40625 0  0.125 0.40625 0  0.15625 0.40625 0  0.1875 0.40625 0  0.21875 0.40625 0  0.25 0.40625 0  0.28125 0.40625 0  0.3125 0.40625 0  0.34375 0.40625 0  0.375 0.40625 0  0.40625 0.40625 0  0.4375 0.40625 0  0.46875 0.40625 0  0.5 0.40625 0  0.53125 0.40625 0  0.5625 0.40625 0  0.59375 0.40625 0  0.625 0.40625 0  0.65625 0.40625 0  0.6875 0.40625 0  0.71875 0.40625 0  0.75 0.40625 0  0.78125 0.40625 0  0.8125 0.40625 0  0.84375 0.40625 0  0.875 0.40625 0  0.90625 0.40625 0  0.9375 0.40625 0  0.96875 0.40625 0  1 0.40625 0  0 0.4375 0  0.03125 0.4375 0  0.0625 0.4375 0  0.09375 0.4375 0  0.125 0.4375 0  0.15625 0.4375 0  0.1875 0.4375 0  0.21875 0.4375 0  0.25 0.4375 0  0.28125 0.4375 0  0.3125 0.4375 0  0.34375 0.4375 0  0.375 0.4375 0  0.40625 0.4375 0  0.4375 0.4375 0  0.46875 0.4375 0  0.5 0.4375 0  0.53125 0.4375 0  0.5625 0.4375 0  0.59375 0.4375 0  0.625 0.4375 0  0.65625 0.4375 0  0.6875 0.4375 0  0.71875 0.4375 0  0.75 0.4375 0  0.78125 0.4375 0  0.8125 0.4375 0  0.84375 0.4375 0  0.875 0.4375 0  0.90625 0.4375 0  0.9375 0.4375 0  0.96875 0.4375 0  1 0.4375 0  0 0.46875 0  0.03125 0.46875 0  0.0625 0.46875 0  0.09375 0.46875 0  0.125 0.46875 0  0.15625 0.46875 0  0.1875 0.46875 0  0.21875 0.46875 0  0.25 0.46875 0  0.28125 0.46875 0  0.3125 0.46875 0  0.34375 0.46875 0  0.375 0.46875 0  0.40625 0.46875 0  0.4375 0.46875 0  0.46875 0.46875 0  0.5 0.46875 0  0.53125 0.46875 0  0.5625 0.46875 0  0.59375 0.46875 0  0.625 0.46875 0  0.65625 0.46875 0  0.6875 0.46875 0  0.71875 0.46875 0  0.75 0.46875 0  0.78125 0.46875 0  0.8125 0.46875 0  0.84375 0.46875 0  0.875 0.46875 0  0.90625 0.46875 0  0.9375 0.46875 0  0.96875 0.46875 0  1 0.46875 0  0 0.5 0  0.03125 0.5 0  0.0625 0.5 0  0.09375 0.5 0  0.125 0.5 0  0.15625 0.5 0  0.1875 0.5 0  0.21875 0.5 0  0.25 0.5 0  0.28125 0.5 0  0.3125 0.5 0  0.34375 0.5 0  0.375 0.5 0  0.40625 0.5 0  0.4375 0.5 0  0.46875 0.5 0  0.5 0.5 0  0.53125 0.5 0  0.5625 0.5 0  0.59375 0.5 0  0.625 0.5 0  0.65625 0.5 0  0.6875 0.5 0  0.71875 0.5 0  0.75 0.5 0  0.78125 0.5 0  0.8125 0.5 0  0.84375 0.5 0  0.875 0.5 0  0.90625 0.5 0  0.9375 0.5 0  0.96875 0.5 0  1 0.5 0  0 0.53125 0  0.03125 0.53125 0  0.0625 0.53125 0  0.09375 0.53125 0  0.125 0.53125 0  0.15625 0.53125 0  0.1875 0.53125 0  0.21875 0.53125 0  0.25 0.53125 0  0.28125 0.53125 0  0.3125 0.53125 0  0.34375 0.53125 0  0.375 0.53125 0  0.40625 0.53125 0  0.4375 0.53125 0  0.46875 0.53125 0  0.5 0.53125 0  0.53125 0.53125 0  0.5625 0.53125 0  0.59375 0.53125 0  0.625 0.53125 0  0.65625 0.53125 0  0.6875 0.53125 0  0.71875 0.53125 0  0.75 0.53125 0  0.78125 0.531
[...]
<PointData  Scalars="theta_dt"> 
<DataArray  type="Float64"  Name="theta_dt"  format="ascii">-2.6155942783130238e-03  -6.3476505966719710e-04  4.2946164568697601e-03  3.0068136404409695e-03  -2.5150276371781800e-03  -3.0024767792518961e-03  1.2437115728967027e-03  6.8564303752055187e-03  4.5552379975338213e-03  3.2031688992287962e-03  -4.6927382720546940e-03  -1.0350054433435766e-02  -9.6621537565003894e-04  1.4629808896031325e-03  1.0215984282684807e-02  1.6251008260235286e-02  5.4949287905887920e-03  -1.2904852861594767e-14  -5.0331330694388431e-03  -9.4492685199685997e-03  -1.4672733882319785e-02  -1.4407680856573821e-02  -7.1735370546057789e-03  -1.2913277207497512e-03  -2.2103982871105815e-03  1.6250959721516296e-03  2.9581306529707085e-03  7.9488194310668135e-03  1.2510811069328892e-02  1.5980716832397119e-02  1.1891127550254857e-02  1.2933310098431954e-02  1.5462276694462028e-02  1.0650764658080682e-03  -2.8771645609426081e-03  -6.9323891811865618e-04  4.6902317967152957e-03  3.3075074828559704e-03  -2.7351791367354887e-03  -2.9799671208700748e-03  1.1323909093063156e-03  7.3936682049322664e-03  4.6927382720373476e-03  3.2700710838457509e-03  -4.9919003875804188e-03  -1.0778702832941588e-02  -9.2543614308215200e-04  1.6082715883251630e-03  1.0838401328873313e-02  1.0378186999809353e-02  5.0331330694143002e-03  -1.2021378826721117e-14  -4.6885617342517149e-03  -8.6551487165920770e-03  -1.1494517927846223e-02  -1.5285480382594497e-02  -7.8859511526838382e-03  -1.2368270837562797e-03  -2.3019421233419664e-03  1.7286958579275616e-03  3.0199149076548023e-03  8.1887552707183078e-03  1.3491099735471176e-02  1.4550333742619234e-02  1.1801979410698688e-02  1.4065419968844393e-02  2.7304852831318161e-03  1.1715885324896089e-03  -3.1422057926800938e-03  -7.4755787878352299e-04  5.0577364330191667e-03  3.6121914307737442e-03  -3.0068136404602943e-03  -3.0699177002586724e-03  1.0372243845807934e-03  7.8441333776725682e-03  4.9919003875619631e-03  -2.3129574545187295e-03  -5.4288635205977454e-03  -1.1003829508913739e-02  -9.1849812058721688e-04  1.7691054215352062e-03  1.1287274657289337e-02  9.4492685199458141e-03  4.6885617342288513e-03  -1.1514015131921991e-14  -4.4906804396787382e-03  -8.0626119987318064e-03  -1.0465680220403176e-02  -1.5918529874634872e-02  -8.6745789948968095e-03  -1.2275545540484305e-03  -2.3500210607187767e-03  1.8800162568668988e-03  1.0763265047266726e-02  8.7107885076663106e-03  1.4313055820644375e-02  1.3327518648907617e-02  1.2158223235836828e-02  -4.6473367905107887e-04  2.9820145812840381e-03  1.2795139782412516e-03  -3.3884143484788792e-03  -7.9310344286157442e-04  5.3658830867268663e-03  3.8952258639452864e-03  -3.3075074828772264e-03  -3.2656249868057079e-03  9.6621537564880772e-04  8.1689988399243820e-03  5.4288635205776764e-03  -2.1059319959603083e-03  -5.9680116255249127e-03  -5.8987044882727194e-03  -9.4622307014640339e-04  1.9320734652690488e-03  1.1523023491241256e-02  8.6551487165712083e-03  4.4906804396568356e-03  -1.1427694215466050e-14  -4.4570136738613887e-03  -7.7223285194094795e-03  -9.5861408252357148e-03  -1.6251008260260973e-02  -9.4736716616222582e-03  -1.2646084002450719e-03  2.1360192235882086e-03  2.0667233270071435e-03  9.7998794572538399e-03  9.4732823760998782e-03  1.4905832265349512e-02  1.2415108658504277e-02  -1.7594459348928906e-03  -4.9304795164344735e-04  3.2156713026672158e-03  1.3797707117247828e-03  -3.5948562136663147e-03  -8.2594989054081793e-04  5.5881115988427495e-03  4.1325456276985594e-03  -3.6121914307969587e-03  -3.5514795942102307e-03  9.2543614308097401e-04  8.3396185873425999e-03  5.9680116255028505e-03  -1.9289487406932749e-03  -6.5648375555128107e-03  -5.3707302277866470e-03  -1.0065448010875796e-03  2.0834617093774374e-03  1.1494517927828069e-02  8.0626119987123619e-03  4.4570136738396526e-03  -1.1772640207842224e-14  -4.5915490381944297e-03  -7.6644339911036124e-03  -8.9298678243290314e-03  -8.1503619948990122e-03  -1.0215984282696775e-02  -1.3452271994186442e-03  1.9448309428055147e-03  2.2734042366744775e-03  8.9762941891177745e-03  1.0414087430626620e-02  1.5217159196104198e-02  -4.9715134210531754e-15  -1.4754418598593641e-03  -5.1346757520299524e-04  3.4115886590703206e-03  1.4638343503371419e-03  -3.7437374946636078e-03  -8.4320088597681243e-04  5.7048262915759158e-03  4.3036953622811371e-03  -3.8952258639703211e-03  -3.9041820494554358e-03  9.1849812058604680e-04  7.7831303473144473e-03  6.5648375554885393e-03  -1.7968917428117725e-03  -7.1695831635636689e-03  -4.9193721969014734e-03  -1.0946521220789572e-03  2.2103982871084244e-03  1.0465680220386636e-02  7.7223285193908624e-03  4.5915490381720336e-03  -1.2523146148238349e-14  -4.8842603389687000e-03  -7.8957856303069791e-03  -8.5529817117852170e-03  -7.4208490390447572e-03  -1.0838401328886013e-02  -1.4629808896045597e-03  1.7813866759146385e-03  2.4828277320507789e-03  8.3617716579021222e-03  1.1455539392478703e-02  1.2986094188446021e-03  -4.7616901175530602e-15  -1.3433797559858479e-03  -5.2419198705630759e-04  3.5528798984437605e-03  1.5244591765589850e-03  -3.8219301298024234e-03  8.8733894303930300e-04  4.8613788870835702e-03  4.3935834171170175e-03  -4.1325456277251172e-03  -4.2946164568789195e-03  9.4622307014519884e-04  7.0864871271701215e-03  7.1695831635371667e-03  -1.7210537173299918e-03  -7.7313581817666250e-03  -4.5825889998782777e-03  -1.2033635706048160e-03  2.3019421233397199e-03  9.5861408252205654e-03  7.6644339910851315e-03  4.8842603389448822e-03  -1.3619352552873839e-14  -5.3118012621605785e-03  -8.3991420495146477e-03  -8.4888597516059750e-03  -6.7971983122906577e-03  -1.1287274657302561e-02  -1.6082715883267325e-03  1.6594318662690221e-03  2.6773705056747825e-03  8.0088621102893543e-03  -2.8656744440302067e-04  1.4275761546179763e-03  -4.7259915840600121e-15  -1.2304816554155166e-03  5.9640531500523017e-04  3.6270862342210526e-03  1.5562994111765587e-03  -2.5654782200298584e-03  8.0791605905128805e-04  4.4262523388807562e-03  -1.0752454551361444e-14  -4.3036953623087964e-03  -4.6902317967252990e-03  1.0065448010862972e-03  6.4909362914449837e-03  7.7313581817380463e-03  -1.7081509260406210e-03  -8.2023973875215376e-03  -4.3891802969135254e-03  -1.3237049216618529e-03  2.3500210607164834e-03  8.9298678243149108e-03  7.8957856302879405e-03  5.3118012621346782e-03  -1.4971909693306141e-14  -5.8393237488427096e-03  -9.1343561242474992e-03  -8.7450967575976937e-03  -6.3318580032455741e-03  -1.1523023491254758e-02  -1.7691054215369327e-03  1.5893953509014016e-03  2.8404914537481663e-03  -5.4014389713918302e-04  -2.9255276352724031e-04  1.5703396945655845e-03  -4.8686460711496952e-15  -1.1462421367935567e-03  5.4302297388848493e-04  2.7032934629167209e-03  -1.1007877909261555e-03  -2.3358504316389824e-03  7.4001851326742851e-04  4.0542685573193718e-03  -9.7900365744223146e-15  -4.3935834171452545e-03  -5.0577364330299532e-03  1.0946521220775631e-03  6.0465628656481652e-03  8.2023973874912181e-03  -1.7597116175678694e-03  -8.5421003847264247e-03  -4.3562744807078904e-03  -1.4456431617113870e-03  8.1503619948894643e-03  8.5529817117716983e-03  8.3991420494944017e-03  5.8393237488142315e-03  -1.6469162796531505e-14  -6.4232803571036591e-03  -1.0041501933942794e-02  -9.3025967703428275e-03  -6.0646211980690170e-03  -1.6621958945957974e-03  -1.9320734652709345e-03  1.5774796063302266e-03  5.1336310272970633e-04  -5.5644818994852736e-04  3.7076679159444019e-04  1.7149976583622664e-03  -5.1790223107675497e-15  -1.0978648537846125e-03  4.9738713484528518e-04  2.4613302708636404e-03  -1.0022597800685511e-03  -2.1395447513029697e-03  6.8935639810738193e-04  3.7767108788853885e-03  -8.9672785055728648e-15  -4.8613788870990821e-03  -5.3658830867383111e-03  1.2033635706032828e-03  5.7913669750127806e-03  8.5421003846948475e-03  -1.8718932521929554e-03  -8.7205128240745704e-03  -4.4877690233057401e-03  -1.5589170013416565e-03  7.4208490390360654e-03  8.4888597515925604e-03  9.1343561242254769e-03  6.4232803570723326e-03  -1.7986283941610486e-14  -7.0149858718845763e-03  -1.1045693799885009e-02  -1.0116894235107771e-02  -6.0191545512236341e-03  -1.5134180315960551e-03  -2.0834617093794705e-03  5.5644818994426721e-04  5.3462408002848789e-04  -5.9192176806746458e-04  3.3758063639815030e-04  1.8493768570918064e-03  -5.6323650538459097e-15  -1.0896341280787975e-03  4.6333571065402157e-04  2.2544792213234155e-03  -9.1802952057298500e-04  -1.9930702231158418e-03  6.6026203096209682e-04  3.6173143559640676e-03  -8.3533731935075585e-15  -4.4262523388948812e-03  -5.5881115988546696e-03  1.3237049216601670e-03  5.7479489232655882e-03  8.7205128240423341e-03  -2.0357483527849544e-03  -7.7831303473315161e-03  -4.7738643470100180e-03  -1.6538952715091906e-03  6.7971983122826936e-03  8.7450967575838697e-03  1.0041501933918591e-02  7.0149858718503650e-03  -1.9395605063660126e-14  -7.5646473690688327e-03  -1.2063210951965289e-02  -1.1121617292504946e-02  -6.2008432804449166e-03  -1.3862298553750302e-03  2.0692580616123404e-04  5.9192176806293316e-04  5.4579037191879285e-04  -6.4373530002804168e-04  3.0921024264399867e-04  1.9620516272195812e-03  -6.1917231835018685e-15  -1.1225248336358643e-03  4.4378057297153964e-04  2.1001362097785889e-03  -8.5518066414878911e-04  -1.9089524620029123e-03  6.5531202673154007e-04  3.5901952418463234e-03  -8.0008181040636261e-15  -4.0542685573323051e-03  -5.7048262915880841e-03  1.4456431617095450e-03  5.9214512858664315e-03  2.3129574544929138e-03  -2.2379213973546521e-03  -7.0864871271856637e-03  -5.1917418204586226e-03  -1.7223914872191717e-03  6.3318580032381546e-03  9.3025967703281240e-03  1.1045693799858378e-02  7.5646473690319412e-03  -2.0577297877462064e-14  -8.0255295846859559e-03  -1.3008427765484750e-02  -1.2233825176815982e-02  -6.5961471065432613e-03  -3.2853950084074955e-04  1.8840453599069641e-04  6.4373530002311409e-04  -3.8604356816111644e-04  -7.0766556200055613e-04  2.8804152234762512e-04  2.0433101650528243e-03  -6.8109211976974393e-15  -1.1940858039035766e-03  4.4045353671830071e-04  2.0114997162171159e-03  -8.1908766452391596e-04  -1.8946409881944336e-03  6.7509268003875130e-04  3.6985656127341659e-03  -7.9408357309968092e-15  -3.7767108788974457e-03  -8.8733894304081535e-04  1.5589170013396707e-03  6.2989438692929280e-03  2.1059319959368023e-03  -2.4617228245340972e-03  -6.4909362914592128e-03  -5.7073410343919289e-03  -1.7583657854487629e-03  6.0646211980619098e-03  1.0116894235091779e-02  1.2063210951936207e-02  8.0255295846468171e-03  -2.1429508448725761e-14  -8.3579075865396410e-03  -1.3800976673285314e-02  -1.3360791683264985e-02  -2.3493755057921571e-15  -3.5428232017272626e-04  1.7257095344830152e-04  7.0766556199513869e-04  -3.5149003732727163e-04  -7.7843505503488654e-04  2.7588469631790113e-04  2.0859872508365231e-03  -7.4383357599403740e-15  -1.2986094188505741e-03  4.5374866690416684e-04  1.9964194425710138e-03  -8.1294693975941270e-04  -1.9518308992602042e-03  7.1812984568231754e-04  3.9343492104909963e-03  -8.1805305819333769e-15  -3.6173143559756157e-03  -8.0791605905266390e-04  1.6538952715070840e-03  6.8503183026999643e-03  1.9289487406717468e-03  -2.6884940208945331e-03  -6.0465628656614220e-03  -6.2780988234753974e-03  1.6621958945941752e-03  6.0191545512165824e-03  1.1121617292487363e-02  1.3008427765453384e-02  8.3579075864988802e-03  -2.1877090507490260e-14  -8.5324729291604267e-03  -1.4372545315814387e-02  2.1031630526559633e-04  -2.5550267411812303e-15  -3.7586725502941615e-04  1.6075664156267776e-04  7.7843505502892755e-04  -3.2195069269532693e-04  -8.5014363528602499e-04  2.7381638048285369e-04  1.2444755745385861e-03  -8.0211689751510593e-15  -1.4275761546245407e-03  4.8267514931985700e-04  2.0566815455667999e-03  -8.3748581729649037e-04  -2.0762601401680893e-03  7.8099092922142481e-04  4.2787402086923191e-03  -8.7020394948825163e-15  -3.5901952418577790e-03  -7.4001851326868911e-04  1.7223914872169777e-03  7.5306330899543557e-03  1.7968917427917158e-03  -2.8991518434025639e-03  -5.7913669750254831e-03  -6.8564303752161986e-03  1.5134180315945782e-03  6.2008432804376516e-03  1.2233825176796637e-02  1.3800976673252039e-02  8.5324729291188159e-03  -6.0351124977843160e-03  -1.0378186999834381e-02  8.1968797837782533e-05  2.0873955762299319e-04  -2.8087700560241174e-15  -3.9143382990408789e-04  1.5397188876498349e-04  8.5014363527951685e-04  -2.9990975347994088e-04  -9.1675691604341638e-04  2.8208155290641043e-04  1.1330865275933988e-03  -8.5098651362203628e-15  -1.5703396945728055e-03  5.2492584126097568e-04  2.1877950163091339e-03  -8.9087554719410617e-04  -2.2580043789081163e-03  8.5855224161350313e-04  4.7036679428745475e-03  -9.4637675235075896e-15  -3.6985656127459690e-03  -6.8935639810855634e-04  1.7583657854465232e-03  8.2837276513132770e-03  1.7210537173107823e-03  -3.0757849975746026e-03  -5.7479489232781901e-03  -7.3936682049437841e-03  1.3862298553736774e-03  6.5961471065355323e-03  1.3360791683243866e-02  1.4372545315779738e-02  -1.5473908142818391e-14  -5.4949287906155891e-03  -3.2359306002573093e-05  7.6357164343300430e-05  2.1504038021194369e-04  -3.0896587181103449e-15  -3.9960941451340086e-04  1.5281755690121885e-04  9.1675691603639855e-04  -2.8725202737171356e-04  -9.7261106733882859e-04  3.0006425495071479e-04  1.0378615428657935e-03  -8.8623019368295729e-15  -1.7149976583701527e-03  5.7705696805562996e-04  2.3793023963651480e-03  -9.6885782648777367e-04  -2.4822499833862172e-03  9.4441102879357997e-04  5.1740542575314710e-03  -1.0403627644582916e-14  -3.9343492105035575e-03  -6.6026203096322179e-04  5.8987044882635349e-03  9.0468155225758989e-03  1.7081509260215560e-03  -3.2031688992645488e-03  -5.9214512858794194e-03  -7.8441333776847894e-03  1.2913277207484907e-03  7.1735370545973742e-03  1.4407680856551046e-02  1.4672733882284411e-02  -1.4088887885442132e-14  -5.8437422456787492e-05  -2.9639818704073799e-05  7.3134501320695441e-05  2.2874920677292150e-04  -3.3742746776605173e-15  -9.8286874087886571e-05  1.5743036879694252e-04  9.7261106733138294e-04  -2.8509849031513925e-04  -1.0128918388108722e-03  3.2633020714719431e-04  9.6680891369211013e-04  -9.0474021856649418e-15  -1.8493768571003104e-03  6.3476505966570675e-04  2.6155942782998963e-03  -1.0650764658241374e-03  -2.7304852831401137e-03  1.0314091330159930e-03  5.6506824393562386e-03  -1.1444033584422186e-14  -4.2787402087059775e-03  -6.5531202673265636e-04  5.3707302277782795e-03  9.7556816921884268e-03  1.7597116175482289e-03  -3.2700710838822499e-03  -6.2989438693067433e-03  -8.1689988399371079e-03  1.2368270837550719e-03  7.8859511526745991e-03  1.5285480382570332e-02  6.0351124977548829e-03  5.3526321205370531e-05  -5.3526321207717531e-05  -2.7610658782278628e-05  7.2586209772854075e-05  2.4877263719140638e-04  -3.6386670663419117e-15  -8.9489528880102551e-05  1.6746655650801782e-04  1.0128918388031185e-03  -2.9370421425318528e-04  -1.0340473504086049e-03  3.5873852098605973e-04  9.2600463078196488e-04  -1.2444755745498416e-03  -1.9620516272286031e-03  6.9323891811702890e-04  2.8771645609281674e-03  -1.1715885325072855e-03  -2.9820145812930986e-03  1.1122255307417922e-03  6.0934434978179167e-03  -1.2498245358901543e-14  -4.7036679428895597e-03  -6.7509268003990109e-04  4.9193721968938094e-03  1.0350054433413070e-02  1.8718932521720616e-03  -6.1681151957477618e-03  -6.8503183027149852e-03  -8.3396185873555930e-03  1.2275545540472328e-03  8.6745789948866493e-03  1.5918529874609708e-02  2.6445347709130245e-05  4.9861876870016216e-05  -4.9861876872202557e-05  -2.6445347709602313e-05  7.4777231136467014e-05  2.7347859920179654e-04  -3.8603557793261829e-15  -8.1968797838504341e-05  1.8212564533707902e-04  1.0340473504006891e-03  -3.1242786108387266e-04  -2.0692580616230757e-04  3.9461386186077783e-04  9.1906234631770911e-04  -1.1330865276036478e-03  -2.0433101650622200e-03  7.4755787878176831e-04  3.1422057926643234e-03  -1.2795139782605560e-03  -3.2156713026769874e-03  1.1799887643553252e-03  6.4646914361547667e-03  -1.3477549434720647e-14  -5.1740542575479847e-03  -7.1812984568354085e-04  4.5825889998711393e-03  1.0778702832917951e-02  2.0357483527622317e-03  -5.6160268404924088e-03  -7.5306330899708729e-03  -1.2437115728982867e-03  1.2646084002438374e-03  9.4736716616111594e-03  -5.7949936552613638e-06  2.6247086144932772e-05  4.7757450543964655e-05  -4.7757450546058703e-05  -2.6247086145401296e-05  7.9544280429021404e-05  3.0082759406673920e-04  -4.0202327477975380e-15  -7.6357164343972880e-05  2.0021280044229923e-04  3.8604356815247090e-04  -3.3977605444140914e-04  -1.8840453599167371e-04  4.3096525636495661e-04  9.4680432708204232e-04  -1.0378615428751801e-03  -2.0859872508461152e-03  7.9310344285971296e-04  3.3884143484618728e-03  -1.3797707117456000e-03  -3.4115886590806877e-03  1.2288581010847803e-03  6.7324271910948362e-03  -1.4298679956939287e-14  -5.6506824393742728e-03  -7.8099092922275534e-04  4.3891802969066888e-03  1.1003829508889609e-02  2.2379213973296730e-03  -5.1440539972078233e-03  -8.2837276513314431e-03  -1.1323909093077585e-03  1.3452271994173319e-03  -7.5202133117467364e-16  -6.3022550961584065e-06  2.7039356834587174e-05  4.7399411506207532e-05  -4.7399411508285880e-05  -2.7039356835069840e-05  8.6507143325154117e-05  3.2853950083579502e-04  -4.1042003317613543e-15  -7.3134501321339484e-05  2.2023491137592973e-04  3.5149003731939978e-04  -3.7351969436837991e-04  -1.7257095344919675e-04  4.6473367904950862e-04  1.0071631131591430e-03  -9.6680891370085433e-04  -3.7076679159569299e-04  8.2594989053887927e-04  3.5948562136482723e-03  -1.4638343503592273e-03  -3.5528798984545574e-03  1.2545243379062630e-03  6.8730423447220064e-03  -1.4890861024005753e-14  -6.0934434978373647e-03  -8.5855224161496572e-04  4.3562744807011050e-03  6.1681151957249606e-03  2.4617228245066201e-03  -4.7918889481938934e-03  -9.0468155225957372e-03  -1.0372243845821146e-03  -6.4697683177990409e-16  -8.1094620691315029e-16  -6.9281409521887800e-06  2.8763116124820970e-05  4.8830167066496100e-05  -4.8830167068637182e-05  -2.8763116125334404e-05  9.5098289926917357e-05  3.5428232016738369e-04  -2.8264815977557415e-04  -7.2586209773493212e-05  2.4052270894408449e-04  3.2195069268811644e-04  -4.1087321392366309e-04  -1.6075664156351175e-04  4.9304795164178147e-04  1.0953245577425387e-03  -9.2600463079034034e-04  -3.3758063639929093e-04  8.4320088597483322e-04  3.7437374946448173e-03  -1.5244591765819853e-03  -3.6270862342320750e-03  4.0350867486861281e-03  3.1076301572643731e-03  -1.5201875261679360e-14  -6.4646914361753986e-03  -9.4441102879518903e-04  4.4877690232987466e-03  5.6160268404716494e-03  2.6884940208645246e-03  -4.5896467165108959e-03  -9.7556816922098229e-03  5.4477025580373208e-06  -5.8906799518879580e-16  -8.6035375578537787e-16  -7.6209837994098756e-06  3.1280878972916369e-05  5.1943090744357931e-05  -5.1943090746635508e-05  -3.1280878973474746e-05  1.0460851358049460e-04  3.7586725502374805e-04  -2.5734922279170835e-04  -7.4777231137125464e-05  2.5936894395004346e-04  2.9990975347322430e-04  -4.4872240203912858e-04  -1.5397188876578217e-04  5.1346757520126030e-04  1.2041027868040155e-03  -9.1906234632602158e-04  -3.0921024264504336e-04  2.5654782200220626e-03  3.8219301297832409e-03  -1.5562994112000392e-03  -5.9640531500662999e-04  3.6739189793275804e-03  2.8294760748878321e-03  -3.1076301572843467e-03  -6.7324271911163233e-03  -1.0314091330177501e-03  4.7738643470025821e-03  5.1440539971888072e-03  2.8991518433702048e-03  -4.5552379975506603e-03  -8.6429480948002279e-17  5.7949936549481556e-06  -5.3956251658733889e-16  -8.9598538099063815e-16  -8.3230204366835139e-06  3.4387427250417921e-05  5.6489899355909421e-05  -5.6489899358386369e-05  -3.4387427251031749e-05  1.1424493468270589e-04  3.9143382989818512e-04  -2.3572150486088887e-04  -7.9544280429721853e-05  2.7517120514185419e-04  2.8725202736528072e-04  -4.8388219164233729e-04  -1.5281755690201162e-04  5.2419198705453644e-04  1.3245180625487429e-03  -9.4680432709060545e-04  -