<?xml version="1.0"?>
<VTKFile type="UnstructuredGrid"  version="0.1"  >
<UnstructuredGrid>
<Piece  NumberOfPoints="1089" NumberOfCells="2048">
<Points>
<DataArray  type="Float64"  NumberOfComponents="3"  format="ascii">0 0 0  0.03125 0 0  0.0625 0 0  0.09375 0 0  0.125 0 0  0.15625 0 0  0.1875 0 0  0.21875 0 0  0.25 0 0  0.28125 0 0  0.3125 0 0  0.34375 0 0  0.375 0 0  0.40625 0 0  0.4375 0 0  0.46875 0 0  0.5 0 0  0.53125 0 0  0.5625 0 0  0.59375 0 0  0.625 0 0  0.65625 0 0  0.6875 0 0  0.71875 0 0  0.75 0 0  0.78125 0 0  0.8125 0 0  0.84375 0 0  0.875 0 0  0.90625 0 0  0.9375 0 0  0.96875 0 0  1 0 0  0 0.03125 0  0.03125 0.03125 0  0.0625 0.03125 0  0.09375 0.03125 0  0.125 0.03125 0  0.15625 0.03125 0  0.1875 0.03125 0  0.21875 0.03125 0  0.25 0.03125 0  0.28125 0.03125 0  0.3125 0.03125 0  0.34375 0.03125 0  0.375 0.03125 0  0.40625 0.03125 0  0.4375 0.03125 0  0.46875 0.03125 0  0.5 0.03125 0  0.53125 0.03125 0  0.5625 0.03125 0  0.59375 0.03125 0  0.625 0.03125 0  0.65625 0.03125 0  0.6875 0.03125 0  0.71875 0.03125 0  0.75 0.03125 0  0.78125 0.03125 0  0.8125 0.03125 0  0.84375 0.03125 0  0.875 0.03125 0  0.90625 0.03125 0  0.9375 0.03125 0  0.96875 0.03125 0  1 0.03125 0  0 0.0625 0  0.03125 0.0625 0  0.0625 0.0625 0  0.09375 0.0625 0  0.125 0.0625 0  0.15625 0.0625 0  0.1875 0.0625 0  0.21875 0.0625 0  0.25 0.0625 0  0.28125 0.0625 0  0.3125 0.0625 0  0.34375 0.0625 0  0.375 0.0625 0  0.40625 0.0625 0  0.4375 0.0625 0  0.46875 0.0625 0  0.5 0.0625 0  0.53125 0.0625 0  0.5625 0.0625 0  0.59375 0.0625 0  0.625 0.0625 0  0.65625 0.0625 0  0.6875 0.0625 0  0.71875 0.0625 0  0.75 0.0625 0  0.78125 0.0625 0  0.8125 0.0625 0  0.84375 0.0625 0  0.875 0.0625 0  0.90625 0.0625 0  0.9375 0.0625 0  0.96875 0.0625 0  1 0.0625 0  0 0.09375 0  0.03125 0.09375 0  0.0625 0.09375 0  0.09375 0.09375 0  0.125 0.09375 0  0.15625 0.09375 0  0.1875 0.09375 0  0.21875 0.09375 0  0.25 0.09375 0  0.28125 0.09375 0  0.3125 0.09375 0  0.34375 0.09375 0  0.375 0.09375 0  0.40625 0.09375 0  0.4375 0.09375 0  0.46875 0.09375 0  0.5 0.09375 0  0.53125 0.09375 0  0.5625 0.09375 0  0.59375 0.09375 0  0.625 0.09375 0  0.65625 0.09375 0  0.6875 0.09375 0  0.71875 0.09375 0  0.75 0.09375 0  0.78125 0.09375 0  0.8125 0.09375 0  0.84375 0.09375 0  0.875 0.09375 0  0.90625 0.09375 0  0.9375 0.09375 0  0.96875 0.09375 0  1 0.09375 0  0 0.125 0  0.03125 0.125 0  0.0625 0.125 0  0.09375 0.125 0  0.125 0.125 0  0.15625 0.125 0  0.1875 0.125 0  0.21875 0.125 0  0.25 0.125 0  0.28125 0.125 0  0.3125 0.125 0  0.34375 0.125 0  0.375 0.125 0  0.40625 0.125 0  0.4375 0.125 0  0.46875 0.125 0  0.5 0.125 0  0.53125 0.125 0  0.5625 0.125 0  0.59375 0.125 0  0.625 0.125 0  0.65625 0.125 0  0.6875 0.125 0  0.71875 0.125 0  0.75 0.125 0  0.78125 0.125 0  0.8125 0.125 0  0.84375 0.125 0  0.875 0.125 0  0.90625 0.125 0  0.9375 0.125 0  0.96875 0.125 0  1 0.125 0  0 0.15625 0  0.03125 0.15625 0  0.0625 0.15625 0  0.09375 0.15625 0  0.125 0.15625 0  0.15625 0.15625 0  0.1875 0.15625 0  0.21875 0.15625 0  0.25 0.15625 0  0.28125 0.15625 0  0.3125 0.15625 0  0.34375 0.15625 0  0.375 0.15625 0  0.40625 0.15625 0  0.4375 0.15625 0  0.46875 0.15625 0  0.5 0.15625 0  0.53125 0.15625 0  0.5625 0.15625 0  0.59375 0.15625 0  0.625 0.15625 0  0.65625 0.15625 0  0.6875 0.15625 0  0.71875 0.15625 0  0.75 0.15625 0  0.78125 0.15625 0  0.8125 0.15625 0  0.84375 0.15625 0  0.875 0.15625 0  0.90625 0.15625 0  0.9375 0.15625 0  0.96875 0.15625 0  1 0.15625 0  0 0.1875 0  0.03125 0.1875 0  0.0625 0.1875 0  0.09375 0.1875 0  0.125 0.1875 0  0.15625 0.1875 0  0.1875 0.1875 0  0.21875 0.1875 0  0.25 0.1875 0  0.28125 0.1875 0  0.3125 0.1875 0  0.34375 0.1875 0  0.375 0.1875 0  0.40625 0.1875 0  0.4375 0.1875 0  0.46875 0.1875 0  0.5 0.1875 0  0.53125 0.1875 0  0.5625 0.1875 0  0.59375 0.1875 0  0.625 0.1875 0  0.65625 0.1875 0  0.6875 0.1875 0  0.71875 0.1875 0  0.75 0.1875 0  0.78125 0.1875 0  0.8125 0.1875 0  0.84375 0.1875 0  0.875 0.1875 0  0.90625 0.1875 0  0.9375 0.1875 0  0.96875 0.1875 0  1 0.1875 0  0 0.21875 0  0.03125 0.21875 0  0.0625 0.21875 0  0.09375 0.21875 0  0.125 0.21875 0  0.15625 0.21875 0  0.1875 0.21875 0  0.21875 0.21875 0  0.25 0.21875 0  0.28125 0.21875 0  0.3125 0.21875 0  0.34375 0.21875 0  0.375 0.21875 0  0.40625 0.21875 0  0.4375 0.21875 0  0.46875 0.21875 0  0.5 0.21875 0  0.53125 0.21875 0  0.5625 0.21875 0  0.59375 0.21875 0  0.625 0.21875 0  0.65625 0.21875 0  0.6875 0.21875 0  0.71875 0.21875 0  0.75 0.21875 0  0.78125 0.21875 0  0.8125 0.21875 0  0.84375 0.21875 0  0.875 0.21875 0  0.90625 0.21875 0  0.9375 0.21875 0  0.96875 0.21875 0  1 0.21875 0  0 0.25 0  0.03125 0.25 0  0.0625 0.25 0  0.09375 0.25 0  0.125 0.25 0  0.15625 0.25 0  0.1875 0.25 0  0.21875 0.25 0  0.25 0.25 0  0.28125 0.25 0  0.3125 0.25 0  0.34375 0.25 0  0.375 0.25 0  0.40625 0.25 0  0.4375 0.25 0  0.46875 0.25 0  0.5 0.25 0  0.53125 0.25 0  0.5625 0.25 0  0.59375 0.25 0  0.625 0.25 0  0.65625 0.25 0  0.6875 0.25 0  0.71875 0.25 0  0.75 0.25 0  0.78125 0.25 0  0.8125 0.25 0  0.84375 0.25 0  0.875 0.25 0  0.90625 0.25 0  0.9375 0.25 0  0.96875 0.25 0  1 0.25 0  0 0.28125 0  0.03125 0.28125 0  0.0625 0.28125 0  0.09375 0.28125 0  0.125 0.28125 0  0.15625 0.28125 0  0.1875 0.28125 0  0.21875 0.28125 0  0.25 0.28125 0  0.28125 0.28125 0  0.3125 0.28125 0  0.34375 0.28125 0  0.375 0.28125 0  0.40625 0.28125 0  0.4375 0.28125 0  0.46875 0.28125 0  0.5 0.28125 0  0.53125 0.28125 0  0.5625 0.28125 0  0.59375 0.28125 0  0.625 0.28125 0  0.65625 0.28125 0  0.6875 0.28125 0  0.71875 0.28125 0  0.75 0.28125 0  0.78125 0.28125 0  0.8125 0.28125 0  0.84375 0.28125 0  0.875 0.28125 0  0.90625 0.28125 0  0.9375 0.28125 0  0.96875 0.28125 0  1 0.28125 0  0 0.3125 0  0.03125 0.3125 0  0.0625 0.3125 0  0.09375 0.3125 0  0.125 0.3125 0  0.15625 0.3125 0  0.1875 0.3125 0  0.21875 0.3125 0  0.25 0.3125 0  0.28125 0.3125 0  0.3125 0.3125 0  0.34375 0.3125 0  0.375 0.3125 0  0.40625 0.3125 0  0.4375 0.3125 0  0.46875 0.3125 0  0.5 0.3125 0  0.53125 0.3125 0  0.5625 0.3125 0  0.59375 0.3125 0  0.625 0.3125 0  0.65625 0.3125 0  0.6875 0.3125 0  0.71875 0.3125 0  0.75 0.3125 0  0.78125 0.3125 0  0.8125 0.3125 0  0.84375 0.3125 0  0.875 0.3125 0  0.90625 0.3125 0  0.9375 0.3125 0  0.96875 0.3125 0  1 0.3125 0  0 0.34375 0  0.03125 0.34375 0  0.0625 0.34375 0  0.09375 0.34375 0  0.125 0.34375 0  0.15625 0.34375 0  0.1875 0.34375 0  0.21875 0.34375 0  0.25 0.34375 0  0.28125 0.34375 0  0.3125 0.34375 0  0.34375 0.34375 0  0.375 0.34375 0  0.40625 0.34375 0  0.4375 0.34375 0  0.46875 0.34375 0  0.5 0.34375 0  0.53125 0.34375 0  0.5625 0.34375 0  0.59375 0.34375 0  0.625 0.34375 0  0.65625 0.34375 0  0.6875 0.34375 0  0.71875 0.34375 0  0.75 0.34375 0  0.78125 0.34375 0  0.8125 0.34375 0  0.84375 0.34375 0  0.875 0.34375 0  0.90625 0.34375 0  0.9375 0.34375 0  0.96875 0.34375 0  1 0.34375 0  0 0.375 0  0.03125 0.375 0  0.0625 0.375 0  0.09375 0.375 0  0.125 0.375 0  0.15625 0.375 0  0.1875 0.375 0  0.21875 0.375 0  0.25 0.375 0  0.28125 0.375 0  0.3125 0.375 0  0.34375 0.375 0  0.375 0.375 0  0.40625 0.375 0  0.4375 0.375 0  0.46875 0.375 0  0.5 0.375 0  0.53125 0.375 0  0.5625 0.375 0  0.59375 0.375 0  0.625 0.375 0  0.65625 0.375 0  0.6875 0.375 0  0.71875 0.375 0  0.75 0.375 0  0.78125 0.375 0  0.8125 0.375 0  0.84375 0.375 0  0.875 0.375 0  0.90625 0.375 0  0.9375 0.375 0  0.96875 0.375 0  1 0.375 0  0 0.40625 0  0.03125 0.40625 0  0.0625 0.40625 0  0.09375 0.40625 0  0.125 0.40625 0  0.15625 0.40625 0  0.1875 0.40625 0  0.21875 0.40625 0  0.25 0.40625 0  0.28125 0.40625 0  0.3125 0.40625 0  0.34375 0.40625 0  0.375 0.40625 0  0.40625 0.40625 0  0.4375 0.40625 0  0.46875 0.40625 0  0.5 0.40625 0  0.53125 0.40625 0  0.5625 0.40625 0  0.59375 0.40625 0  0.625 0.40625 0  0.65625 0.40625 0  0.6875 0.40625 0  0.71875 0.40625 0  0.75 0.40625 0  0.78125 0.40625 0  0.8125 0.40625 0  0.84375 0.40625 0  0.875 0.40625 0  0.90625 0.40625 0  0.9375 0.40625 0  0.96875 0.40625 0  1 0.40625 0  0 0.4375 0  0.03125 0.4375 0  0.0625 0.4375 0  0.09375 0.4375 0  0.125 0.4375 0  0.15625 0.4375 0  0.1875 0.4375 0  0.21875 0.4375 0  0.25 0.4375 0  0.28125 0.4375 0  0.3125 0.4375 0  0.34375 0.4375 0  0.375 0.4375 0  0.40625 0.4375 0  0.4375 0.4375 0  0.46875 0.4375 0  0.5 0.4375 0  0.53125 0.4375 0  0.5625 0.4375 0  0.59375 0.4375 0  0.625 0.4375 0  0.65625 0.4375 0  0.6875 0.4375 0  0.71875 0.4375 0  0.75 0.4375 0  0.78125 0.4375 0  0.8125 0.4375 0  0.84375 0.4375 0  0.875 0.4375 0  0.90625 0.4375 0  0.9375 0.4375 0  0.96875 0.4375 0  1 0.4375 0  0 0.46875 0  0.03125 0.46875 0  0.0625 0.46875 0  0.09375 0.46875 0  0.125 0.46875 0  0.15625 0.46875 0  0.1875 0.46875 0  0.21875 0.46875 0  0.25 0.46875 0  0.28125 0.46875 0  0.3125 0.46875 0  0.34375 0.46875 0  0.375 0.46875 0  0.40625 0.46875 0  0.4375 0.46875 0  0.46875 0.46875 0  0.5 0.46875 0  0.53125 0.46875 0  0.5625 0.46875 0  0.59375 0.46875 0  0.625 0.46875 0  0.65625 0.46875 0  0.6875 0.46875 0  0.71875 0.46875 0  0.75 0.46875 0  0.78125 0.46875 0  0.8125 0.46875 0  0.84375 0.46875 0  0.875 0.46875 0  0.90625 0.46875 0  0.9375 0.46875 0  0.96875 0.46875 0  1 0.46875 0  0 0.5 0  0.03125 0.5 0  0.0625 0.5 0  0.09375 0.5 0  0.125 0.5 0  0.15625 0.5 0  0.1875 0.5 0  0.21875 0.5 0  0.25 0.5 0  0.28125 0.5 0  0.3125 0.5 0  0.34375 0.5 0  0.375 0.5 0  0.40625 0.5 0  0.4375 0.5 0  0.46875 0.5 0  0.5 0.5 0  0.53125 0.5 0  0.5625 0.5 0  0.59375 0.5 0  0.625 0.5 0  0.65625 0.5 0  0.6875 0.5 0  0.71875 0.5 0  0.75 0.5 0  0.78125 0.5 0  0.8125 0.5 0  0.84375 0.5 0  0.875 0.5 0  0.90625 0.5 0  0.9375 0.5 0  0.96875 0.5 0  1 0.5 0  0 0.53125 0  0.03125 0.53125 0  0.0625 0.53125 0  0.09375 0.53125 0  0.125 0.53125 0  0.15625 0.53125 0  0.1875 0.53125 0  0.21875 0.53125 0  0.25 0.53125 0  0.28125 0.53125 0  0.3125 0.53125 0  0.34375 0.53125 0  0.375 0.53125 0  0.40625 0.53125 0  0.4375 0.53125 0  0.46875 0.53125 0  0.5 0.53125 0  0.53125 0.53125 0  0.5625 0.53125 0  0.59375 0.53125 0  0.625 0.53125 0  0.65625 0.53125 0  0.6875 0.53125 0  0.71875 0.53125 0  0.75 0.53125 0  0.78125 0.531
[...]
<PointData  Scalars="phi"> 
<DataArray  type="Float64"  Name="phi"  format="ascii">0.0000000000000000e+00  0.0000000000000000e+00  0.0000000000000000e+00  0.0000000000000000e+00  0.0000000000000000e+00  0.0000000000000000e+00  0.0000000000000000e+00  0.0000000000000000e+00  0.0000000000000000e+00  0.0000000000000000e+00  0.0000000000000000e+00  0.0000000000000000e+00  0.0000000000000000e+00  0.0000000000000000e+00  0.0000000000000000e+00  0.0000000000000000e+00  0.0000000000000000e+00  0.0000000000000000e+00  0.0000000000000000e+00  0.0000000000000000e+00  0.0000000000000000e+00  0.0000000000000000e+00  0.0000000000000000e+00  0.0000000000000000e+00  0.0000000000000000e+00  0.0000000000000000e+00  0.0000000000000000e+00  0.0000000000000000e+00  0.0000000000000000e+00  0.0000000000000000e+00  0.0000000000000000e+00  0.0000000000000000e+00  0.0000000000000000e+00  0.0000000000000000e+00  -4.9999299939898957e-17  4.2607864082839565e-06  1.6788534434911272e-05  4.1171842591358437e-05  8.0411551051982134e-05  1.3677153047338470e-04  2.1165801473942044e-04  3.0553305592144356e-04  4.1786602490679882e-04  5.4712546454106737e-04  6.9081196756176915e-04  8.4553111970165663e-04  1.0071039653254377e-03  1.1707109727040234e-03  1.3310641523287476e-03  1.4826008640495664e-03  1.6196919797562147e-03  1.7368564812272869e-03  1.8289742905961354e-03  1.8914891652238516e-03  1.9205938395749553e-03  1.9133902526063903e-03  1.8680186387566643e-03  1.7837504548538735e-03  1.6610415326963515e-03  1.5015434649273819e-03  1.3080730633755248e-03  1.0845418992675008e-03  8.3585091338731518e-04  5.6776046942916898e-04  2.8675958657007993e-04  0.0000000000000000e+00  0.0000000000000000e+00  -4.2607864084813135e-06  -1.9486326809285789e-16  2.0785050080971222e-05  6.5273463067247873e-05  1.3947734591816336e-04  2.4794277984911900e-04  3.9350844943590515e-04  5.7713249583032466e-04  7.9779522697316695e-04  1.0524822184918669e-03  1.3362491278371244e-03  1.6423663123697144e-03  1.9625381976164447e-03  2.2871893976267993e-03  2.6058069545385112e-03  2.9073258385973592e-03  3.1805431179382964e-03  3.4145450361488905e-03  3.5991306707583454e-03  3.7252159103663557e-03  3.7852021817821272e-03  3.7732956580039398e-03  3.6857645388086503e-03  3.5211243564739160e-03  3.2802440472402333e-03  2.9663686727713543e-03  2.5850581252784954e-03  2.1440449165851436e-03  1.6530183711087961e-03  1.1233475031624551e-03  5.6776046942917039e-04  0.0000000000000000e+00  0.0000000000000000e+00  -1.6788534435201310e-05  -2.0785050081544114e-05  -4.2113728150994019e-16  5.6338880641073405e-05  1.5727057243463964e-04  3.0965276559026978e-04  5.1780055924680068e-04  7.8322710637692403e-04  1.1044973614077894e-03  1.4772015973692799e-03  1.8940506351417530e-03  2.3450899426466962e-03  2.8180250934297041e-03  3.2986466968689225e-03  3.7713389918815460e-03  4.2196529820093106e-03  4.6269224092934831e-03  4.9768991170469241e-03  5.2543835056970186e-03  5.4458258754643395e-03  5.5398754737097031e-03  5.5278559874563735e-03  5.4041489741874522e-03  5.1664702087371589e-03  4.8160280194694590e-03  4.3575572545879156e-03  3.7992274099182630e-03  3.1524284979804066e-03  2.4314432153685929e-03  1.6530183711088026e-03  8.3585091338732017e-04  0.0000000000000000e+00  0.0000000000000000e+00  -4.1171842591734506e-05  -6.5273463067990823e-05  -5.6338880642165671e-05  -7.0814966715424556e-16  1.1582818255007124e-04  3.0035318912241960e-04  5.5942568578502133e-04  8.9519493206603469e-04  1.3059136174863040e-03  1.7859008103591595e-03  2.3256655607362779e-03  2.9121874146887427e-03  3.5293439536158945e-03  4.1584697056465652e-03  4.7790256076283063e-03  5.3693538242960753e-03  5.9074893244224890e-03  6.3719973038747872e-03  6.7428044226012654e-03  7.0019919315222126e-03  7.1345201041386709e-03  7.1288559077484440e-03  6.9774794571061637e-03  6.6772493546218212e-03  6.2296123644878399e-03  5.6406487893982237e-03  4.9209511805544184e-03  4.0853403305250429e-03  3.1524284979804239e-03  2.1440449165851631e-03  1.0845418992675129e-03  0.0000000000000000e+00  0.0000000000000000e+00  -8.0411551052435765e-05  -1.3947734591905961e-04  -1.5727057243595719e-04  -1.1582818255177928e-04  -1.0295767222182927e-15  2.0181463982487741e-04  4.9707240531731973e-04  8.8865792822744516e-04  1.3746400796348134e-03  1.9482232836653141e-03  2.5978970010589516e-03  3.3077787892643240e-03  4.0581387859490838e-03  4.8260863615250688e-03  5.5863933177230495e-03  6.3124226192065140e-03  6.9771274419102277e-03  7.5540824680099886e-03  8.0185079643035027e-03  8.3482473035168953e-03  8.5246602237733851e-03  8.5333972092126453e-03  8.3650247975338241e-03  8.0154772087928684e-03  7.4863162274294943e-03  6.7847884967534057e-03  5.9236770019694771e-03  4.9209511805544557e-03  3.7992274099183116e-03  2.5850581252785387e-03  1.3080730633755495e-03  0.0000000000000000e+00  0.0000000000000000e+00  -1.3677153047390595e-04  -2.4794277985014883e-04  -3.0965276559178332e-04  -3.0035318912438120e-04  -2.0181463982724105e-04  -1.3556431554216725e-15  3.1422998062669363e-04  7.4460757059645007e-04  1.2891664701750419e-03  1.9401804043859511e-03  2.6843356148513707e-03  3.5031318726247156e-03  4.3734977277414197e-03  5.2685973410863951e-03  6.1587987343160299e-03  7.0127669343385182e-03  7.7986405261879013e-03  8.4852467542608674e-03  9.0433086580312162e-03  9.4465978596439612e-03  9.6729885336723411e-03  9.7053717114957486e-03  9.5323942655210752e-03  9.1489934812316598e-03  8.5567058015408228e-03  7.7637368134946061e-03  6.7847884967534699e-03  5.6406487893983174e-03  4.3575572545880119e-03  2.9663686727714311e-03  1.5015434649274240e-03  0.0000000000000000e+00  0.0000000000000000e+00  -2.1165801473999805e-04  -3.9350844943704616e-04  -5.1780055924847740e-04  -5.5942568578719353e-04  -4.9707240531993548e-04  -3.1422998062969167e-04  -1.6559096593064798e-15  4.5031656177732353e-04  1.0348809749625570e-03  1.7452415807399104e-03  2.5665261143649567e-03  3.4778954413130798e-03  4.4532424505453125e-03  5.4621102870854666e-03  6.4707955239386508e-03  7.4435946028146380e-03  8.3441461953426971e-03  9.1368182713321283e-03  9.7880867582666523e-03  1.0267852811220564e-02  1.0550647880858108e-02  1.0616679886682037e-02  1.0452679715040894e-02  1.0052514738141092e-02  9.4175448006602481e-03  8.5567058015409182e-03  7.4863162274296487e-03  6.2296123644880134e-03  4.8160280194696186e-03  3.2802440472403547e-03  1.6610415326964163e-03  0.0000000000000000e+00  0.0000000000000000e+00  -3.0553305592206535e-04  -5.7713249583155296e-04  -7.8322710637872815e-04  -8.9519493206837060e-04  -8.8865792823025606e-04  -7.4460757059966875e-04  -4.5031656178087483e-04  -1.9012873515433104e-15  6.0480096478416419e-04  1.3551292387378329e-03  2.2348205340190792e-03  3.2210040564887282e-03  4.2848770837838517e-03  5.3927247209143341e-03  6.5071465451088106e-03  7.5884437361967315e-03  8.5961139470187662e-03  9.4903968455877334e-03  1.0233811124663372e-02  1.0792623908587509e-02  1.1138195887736454e-02  1.1248150086426672e-02  1.1107318745046953e-02  1.0708431118384203e-02  1.0052514738141232e-02  9.1489934812318922e-03  8.0154772087931425e-03  6.6772493546220987e-03  5.1664702087374009e-03  3.5211243564740946e-03  1.7837504548539676e-03  0.0000000000000000e+00  0.0000000000000000e+00  -4.1786602490745210e-04  -7.9779522697445726e-04  -1.1044973614096842e-03  -1.3059136174887556e-03  -1.3746400796377607e-03  -1.2891664701784131e-03  -1.0348809749662711e-03  -6.0480096478813389e-04  -2.0673076660042173e-15  7.7028676046388025e-04  1.6888841831015689e-03  2.7312185843240775e-03  3.8661593137456268e-03  5.0571291847104835e-03  6.2634419605635512e-03  7.4418162194942513e-03  8.5480079725554683e-03  9.5384996672372539e-03  1.0372180856490719e-02  1.1011955942160203e-02  1.1426217008705837e-02  1.1590124748773221e-02  1.1486647655782563e-02  1.1107318745047138e-02  1.0452679715041217e-02  9.5323942655214777e-03  8.3650247975342491e-03  6.9774794571065678e-03  5.4041489741877939e-03  3.6857645388088970e-03  1.8680186387567933e-03  0.0000000000000000e+00  0.0000000000000000e+00  -5.4712546454173958e-04  -1.0524822184931944e-03  -1.4772015973712276e-03  -1.7859008103616775e-03  -1.9482232836683388e-03  -1.9401804043894053e-03  -1.7452415807437090e-03  -1.3551292387418842e-03  -7.7028676046808891e-04  -2.1349848418092459e-15  9.3783359502553026e-04  2.0172805902909040e-03  3.2052708752893840e-03  4.4627870878025883e-03  5.7462992757885707e-03  7.0093903465987548e-03  8.2045103624076542e-03  9.2847926215140156e-03  1.0205861915819191e-02  1.0927565474623027e-02  1.1415559890611868e-02  1.1642692669773060e-02  1.1590124748773460e-02  1.1248150086427093e-02  1.0616679886682578e-02  9.7053717114963488e-03  8.5333972092132490e-03  7.1288559077489974e-03  5.5278559874568306e-03  3.7732956580042655e-03  1.9133902526065594e-03  0.0000000000000000e+00  0.0000000000000000e+00  -6.9081196756244764e-04  -1.3362491278384636e-03  -1.8940506351437171e-03  -2.3256655607388150e-03  -2.5978970010619952e-03  -2.6843356148548402e-03  -2.5665261143687636e-03  -2.2348205340231293e-03  -1.6888841831057626e-03  -9.3783359502976884e-04  -2.0939250668296656e-15  1.0976736754639675e-03  2.3205800967352596e-03  3.6277035697766589e-03  4.9731373354587501e-03  6.3078044223489026e-03  7.5813164062800672e-03  8.7438989751323949e-03  9.7483104727384817e-03  1.0551679702563776e-02  1.1117192207025648e-02  1.1415559890612156e-02  1.1426217008706363e-02  1.1138195887737148e-02  1.0550647880858906e-02  9.6729885336731738e-03  8.5246602237741918e-03  7.1345201041393917e-03  5.5398754737102903e-03  3.7852021817825405e-03  1.9205938395751687e-03  0.0000000000000000e+00  0.0000000000000000e+00  -8.4553111970232949e-04  -1.6423663123710419e-03  -2.3450899426486413e-03  -2.9121874146912519e-03  -3.3077787892673298e-03  -3.5031318726281356e-03  -3.4778954413168242e-03  -3.2210040564926981e-03  -2.7312185843281732e-03  -2.0172805902950236e-03  -1.0976736754680142e-03  -1.9414711326896151e-15  1.2400048906306797e-03  2.5797818289756938e-03  3.9715326952677651e-03  5.3640196349565503e-03  6.7045101016114921e-03  7.9407932721683450e-03  9.0231905054814002e-03  9.9064826052720524e-03  1.0551679702564116e-02  1.0927565474623653e-02  1.1011955942161054e-02  1.0792623908588509e-02  1.0267852811221645e-02  9.4465978596450471e-03  8.3482473035179187e-03  7.0019919315231147e-03  5.4458258754650646e-03  3.7252159103668631e-03  1.8914891652241131e-03  0.0000000000000000e+00  0.0000000000000000e+00  -1.0071039653260937e-03  -1.9625381976177384e-03  -2.8180250934315976e-03  -3.5293439536183335e-03  -4.0581387859519999e-03  -4.3734977277447304e-03  -4.4532424505489259e-03  -4.2848770837876689e-03  -3.8661593137495473e-03  -3.2052708752933058e-03  -2.3205800967390847e-03  -1.2400048906343177e-03  -1.6850454833658534e-15  1.3557931810540312e-03  2.7781828494618886e-03  4.2142866576749625e-03  5.6095440753079154e-03  6.9098041645213153e-03  8.0634086838295548e-03  9.0231905054817853e-03  9.7483104727392016e-03  1.0205861915820185e-02  1.0372180856491914e-02  1.0233811124664698e-02  9.7880867582680331e-03  9.0433086580325728e-03  8.0185079643047569e-03  6.7428044226023557e-03  5.2543835056978894e-03  3.5991306707589517e-03  1.8289742905964463e-03  0.0000000000000000e+00  0.0000000000000000e+00  -1.1707109727046522e-03  -2.2871893976280379e-03  -3.2986466968707340e-03  -4.1584697056488967e-03  -4.8260863615278496e-03  -5.2685973410895454e-03  -5.4621102870888935e-03  -5.3927247209179380e-03  -5.0571291847141611e-03  -4.4627870878062434e-03  -3.6277035697801934e-03  -2.5797818289790180e-03  -1.3557931810570648e-03  -1.3393123919535470e-15  1.4375159178577500e-03  2.9027556520247510e-03  4.3398632797902554e-03  5.6932648535541353e-03  6.9098041645217411e-03  7.9407932721691464e-03  8.7438989751335225e-03  9.2847926215154017e-03  9.5384996672388204e-03  9.4903968455894057e-03  9.1368182713338214e-03  8.4852467542625015e-03  7.5540824680114830e-03  6.3719973038760735e-03  4.9768991170479459e-03  3.4145450361495978e-03  1.7368564812276490e-03  0.0000000000000000e+00  0.0000000000000000e+00  -1.3310641523293408e-03  -2.6058069545396791e-03  -3.7713389918832534e-03  -4.7790256076304972e-03  -5.5863933177256585e-03  -6.1587987343189755e-03  -6.4707955239418401e-03  -6.5071465451121465e-03  -6.2634419605669348e-03  -5.7462992757919022e-03  -4.9731373354619385e-03  -3.9715326952707176e-03  -2.7781828494645318e-03  -1.4375159178600216e-03  -9.2594530674520570e-16  1.4797830335157021e-03  2.9452254652708484e-03  4.3398632797907039e-03  5.6095440753087845e-03  6.7045101016127272e-03  7.5813164062816128e-03  8.2045103624094375e-03  8.5480079725574129e-03  8.5961139470207872e-03  8.3441461953447024e-03  7.7986405261898104e-03  6.9771274419119589e-03  5.9074893244239687e-03  4.6269224092946523e-03  3.1805431179391039e-03  1.6196919797566260e-03  0.0000000000000000e+00  0.0000000000000000e+00  -1.4826008640501174e-03  -2.9073258385984438e-03  -4.2196529820108927e-03  -5.3693538242981015e-03  -6.3124226192089183e-03  -7.0127669343412209e-03  -7.4435946028175506e-03  -7.5884437361997585e-03  -7.4418162194972975e-03  -7.0093903466017203e-03  -6.3078044223516989e-03  -5.3640196349590934e-03  -4.2142866576771795e-03  -2.9027556520265802e-03  -1.4797830335171033e-03  -4.7232082620740585e-16  1.4797830335161635e-03  2.9027556520256556e-03  4.2142866576762765e-03  5.3640196349582191e-03  6.3078044223508645e-03  7.0093903466009336e-03  7.4418162194965654e-03  7.5884437361990889e-03  7.4435946028169504e-03  7.0127669343406970e-03  6.3124226192084725e-03  5.3693538242977406e-03  4.2196529820106195e-03  2.9073258385982608e-03  1.4826008640500257e-03  0.0000000000000000e+00  0.0000000000000000e+00  -1.6196919797567184e-03  -3.1805431179392869e-03  -4.6269224092949247e-03  -5.9074893244243304e-03  -6.9771274419124056e-03  -7.7986405261903369e-03  -8.3441461953453061e-03  -8.5961139470214550e-03  -8.5480079725581450e-03  -8.2045103624102250e-03  -7.5813164062824463e-03  -6.7045101016135981e-03  -5.6095440753096831e-03  -4.3398632797916267e-03  -2.9452254652717847e-03  -1.4797830335166436e-03  -9.7516631662025571e-18  1.4375159178591002e-03  2.7781828494636332e-03  3.9715326952698485e-03  4.9731373354611075e-03  5.7462992757911224e-03  6.2634419605662080e-03  6.5071465451114821e-03  6.4707955239412468e-03  6.1587987343184568e-03  5.5863933177252197e-03  4.7790256076301408e-03  3.7713389918829828e-03  2.6058069545394982e-03  1.3310641523292498e-03  0.0000000000000000e+00  0.0000000000000000e+00  -1.7368564812277399e-03  -3.4145450361497800e-03  -4.9768991170482165e-03  -6.3719973038764317e-03  -7.5540824680119254e-03  -8.4852467542630219e-03  -9.1368182713344182e-03  -9.4903968455900701e-03  -9.5384996672395472e-03  -9.2847926215161806e-03  -8.7438989751343482e-03  -7.9407932721700086e-03  -6.9098041645226285e-03  -5.6932648535550478e-03  -4.3398632797911818e-03  -2.9027556520256799e-03  -1.4375159178586724e-03  4.3174088207998021e-16  1.3557931810561799e-03  2.5797818289781628e-03  3.6277035697793785e-03  4.4627870878054757e-03  5.0571291847134499e-03  5.3927247209172857e-03  5.4621102870883098e-03  5.2685973410890362e-03  4.8260863615274194e-03  4.1584697056485462e-03  3.2986466968704686e-03  2.2871893976278601e-03  1.1707109727045629e-03  0.0000000000000000e+00  0.0000000000000000e+00  -1.8289742905965353e-03  -3.5991306707591295e-03  -5.2543835056981548e-03  -6.7428044226027061e-03  -8.0185079643051924e-03  -9.0433086580330828e-03  -9.7880867582686194e-03  -1.0233811124665350e-02  -1.0372180856492627e-02  -1.0205861915820950e-02  -9.7483104727400134e-03  -9.0231905054826318e-03  -8.0634086838304274e-03  -6.9098041645222104e-03  -5.6095440753088227e-03  -4.2142866576758715e-03  -2.7781828494627880e-03  -1.3557931810549160e-03  8.2276986628631795e-16  1.2400048906334856e-03  2.3205800967382919e-03  3.2052708752925599e-03  3.8661593137488547e-03  4.2848770837870366e-03  4.4532424505483587e-03  4.3734977277442343e-03  4.0581387859515792e-03  3.5293439536179926e-03  2.8180250934313391e-03  1.9625381976175649e-03  1.0071039653260067e-03  0.0000000000000000e+00  0.0000000000000000e+00  -1.8914891652241990e-03  -3.7252159103670348e-03  -5.4458258754653197e-03  -7.0019919315234529e-03  -8.3482473035183351e-03  -9.4465978596455398e-03  -1.0267852811222208e-02  -1.0792623908589136e-02  -1.1011955942161738e-02  -1.0927565474624390e-02  -1.0551679702564900e-02  -9.9064826052728695e-03  -9.0231905054822484e-03  -7.9407932721692089e-03  -6.7045101016123664e-03  -5.3640196349574263e-03  -3.9715326952686324e-03  -2.5797818289765469e-03  -1.2400048906315107e-03  1.1401042336700276e-15  1.0976736754672507e-03  2.0172805902943054e-03  2.7312185843275071e-03  3.2210040564920892e-03  3.4778954413162777e-03  3.5031318726276577e-03  3.3077787892669243e-03  2.9121874146909232e-03  2.3450899426483924e-03  1.6423663123708745e-03  8.4553111970224579e-04  0.0000000000000000e+00  0.0000000000000000e+00  -1.9205938395752509e-03  -3.7852021817827049e-03  -5.5398754737105340e-03  -7.1345201041397134e-03  -8.5246602237745890e-03  -9.6729885336736439e-03  -1.0550647880859444e-02  -1.1138195887737748e-02  -1.1426217008707018e-02  -1.1415559890612862e-02  -1.1117192207026394e-02  -1.0551679702564558e-02  -9.7483104727392935e-03  -8.7438989751332206e-03  -7.5813164062809024e-03  -6.3078044223497387e-03  -4.9731373354595784e-03  -3.6277035697774734e-03  -2.3205800967360532e-03  -1.0976736754647319e-03  1.3657575808585206e-15  9.3783359502908406e-04  1.6888841831051279e-03  2.2348205340225495e-03  2.5665261143682440e-03  2.6843356148543857e-03  2.5978970010616088e-03  2.3256655607385018e-03  1.8940506351434799e-03  1.3362491278383045e-03  6.9081196756236795e-04  0.0000000000000000e+00  0.0000000000000000e+00  -1.9133902526066366e-03  -3.7732956580044203e-03  -5.5278559874570614e-03  -7.1288559077493027e-03  -8.5333972092136272e-03  -9.7053717114967963e-03  -1.0616679886683088e-02  -1.1248150086427659e-02  -1.1590124748774079e-02  -1.1642692669773726e-02  -1.1415559890612572e-02  -1.0927565474623766e-02  -1.0205861915819958e-02  -9.2847926215147945e-03  -8.2045103624084417e-03  -7.0093903465995432e-03  -5.7462992757893513e-03  -4.4627870878033559e-03  -3.2052708752901326e-03  -2.0172805902916244e-03  -9.3783359502621613e-04  1.4900469817019520e-15  7.7028676046749086e-04  1.3551292387413384e-03  1.7452415807432198e-03  1.9401804043889773e-03  1.9482232836679758e-03  1.7859008103613835e-03  1.4772015973710047e-03  1.0524822184930446e-03  5.4712546454166455e-04  0.0000000000000000e+00  0.0000000000000000e+00  -1.8680186387568655e-03  -3.6857645388090410e-03  -5.4041489741880090e-03  -6.9774794571068523e-03  -8.3650247975346030e-03  -9.5323942655218957e-03  -1.0452679715041692e-02  -1.1107318745047667e-02  -1.1486647655783142e-02  -1.1590124748773842e-02  -1.1426217008706496e-02  -1.1011955942160895e-02  -1.0372180856491428e-02  -9.5384996672379756e-03  -8.5480079725561986e-03  -7.4418162194949842e-03  -6.2634419605642772e-03  -5.0571291847111965e-03  -3.8661593137463233e-03  -2.7312185843247488e-03  -1.6888841831022067e-03  -7.7028676046447938e-04  1.5118656096605063e-15  6.0480096478762692e-04  1.0348809749658166e-03  1.2891664701780157e-03  1.3746400796374241e-03  1.3059136174884821e-03  1.1044973614094766e-03  7.9779522697431826e-04  4.1786602490738239e-04  0.0000000000000000e+00  0.0000000000000000e+00  -1.7837504548540340e-03  -3.5211243564742273e-03  -5.1664702087375995e-03  -6.6772493546223607e-03  -8.0154772087934669e-03  -9.1489934812322756e-03  -1.0052514738141668e-02  -1.0708431118384690e-02  -1.1107318745047483e-02  -1.1248150086427242e-02  -1.1138195887737059e-02  -1.0792623908588140e-02  -1.0233811124664023e-02  -9.4903968455883978e-03  -8.5961139470194358e-03  -7.5884437361974011e-03  -6.5071465451094750e-03  -5.3927247209149872e-03  -4.2848770837844875e-03  -3.2210040564893401e-03  -2.2348205340196620e-03  -1.3551292387383802e-03  -6.0480096478467171e-04  1.4380034724456343e-15  4.50316561780459