<?xml version="1.0"?>
<VTKFile type="UnstructuredGrid"  version="0.1"  >
<UnstructuredGrid>
<Piece  NumberOfPoints="1089" NumberOfCells="2048">
<Points>
<DataArray  type="Float64"  NumberOfComponents="3"  format="ascii">0 0 0  0.03125 0 0  0.0625 0 0  0.09375 0 0  0.125 0 0  0.15625 0 0  0.1875 0 0  0.21875 0 0  0.25 0 0  0.28125 0 0  0.3125 0 0  0.34375 0 0  0.375 0 0  0.40625 0 0  0.4375 0 0  0.46875 0 0  0.5 0 0  0.53125 0 0  0.5625 0 0  0.59375 0 0  0.625 0 0  0.65625 0 0  0.6875 0 0  0.71875 0 0  0.75 0 0  0.78125 0 0  0.8125 0 0  0.84375 0 0  0.875 0 0  0.90625 0 0  0.9375 0 0  0.96875 0 0  1 0 0  0 0.03125 0  0.03125 0.03125 0  0.0625 0.03125 0  0.09375 0.03125 0  0.125 0.03125 0  0.15625 0.03125 0  0.1875 0.03125 0  0.21875 0.03125 0  0.25 0.03125 0  0.28125 0.03125 0  0.3125 0.03125 0  0.34375 0.03125 0  0.375 0.03125 0  0.40625 0.03125 0  0.4375 0.03125 0  0.46875 0.03125 0  0.5 0.03125 0  0.53125 0.03125 0  0.5625 0.03125 0  0.59375 0.03125 0  0.625 0.03125 0  0.65625 0.03125 0  0.6875 0.03125 0  0.71875 0.03125 0  0.75 0.03125 0  0.78125 0.03125 0  0.8125 0.03125 0  0.84375 0.03125 0  0.875 0.03125 0  0.90625 0.03125 0  0.9375 0.03125 0  0.96875 0.03125 0  1 0.03125 0  0 0.0625 0  0.03125 0.0625 0  0.0625 0.0625 0  0.09375 0.0625 0  0.125 0.0625 0  0.15625 0.0625 0  0.1875 0.0625 0  0.21875 0.0625 0  0.25 0.0625 0  0.28125 0.0625 0  0.3125 0.0625 0  0.34375 0.0625 0  0.375 0.0625 0  0.40625 0.0625 0  0.4375 0.0625 0  0.46875 0.0625 0  0.5 0.0625 0  0.53125 0.0625 0  0.5625 0.0625 0  0.59375 0.0625 0  0.625 0.0625 0  0.65625 0.0625 0  0.6875 0.0625 0  0.71875 0.0625 0  0.75 0.0625 0  0.78125 0.0625 0  0.8125 0.0625 0  0.84375 0.0625 0  0.875 0.0625 0  0.90625 0.0625 0  0.9375 0.0625 0  0.96875 0.0625 0  1 0.0625 0  0 0.09375 0  0.03125 0.09375 0  0.0625 0.09375 0  0.09375 0.09375 0  0.125 0.09375 0  0.15625 0.09375 0  0.1875 0.09375 0  0.21875 0.09375 0  0.25 0.09375 0  0.28125 0.09375 0  0.3125 0.09375 0  0.34375 0.09375 0  0.375 0.09375 0  0.40625 0.09375 0  0.4375 0.09375 0  0.46875 0.09375 0  0.5 0.09375 0  0.53125 0.09375 0  0.5625 0.09375 0  0.59375 0.09375 0  0.625 0.09375 0  0.65625 0.09375 0  0.6875 0.09375 0  0.71875 0.09375 0  0.75 0.09375 0  0.78125 0.09375 0  0.8125 0.09375 0  0.84375 0.09375 0  0.875 0.09375 0  0.90625 0.09375 0  0.9375 0.09375 0  0.96875 0.09375 0  1 0.09375 0  0 0.125 0  0.03125 0.125 0  0.0625 0.125 0  0.09375 0.125 0  0.125 0.125 0  0.15625 0.125 0  0.1875 0.125 0  0.21875 0.125 0  0.25 0.125 0  0.28125 0.125 0  0.3125 0.125 0  0.34375 0.125 0  0.375 0.125 0  0.40625 0.125 0  0.4375 0.125 0  0.46875 0.125 0  0.5 0.125 0  0.53125 0.125 0  0.5625 0.125 0  0.59375 0.125 0  0.625 0.125 0  0.65625 0.125 0  0.6875 0.125 0  0.71875 0.125 0  0.75 0.125 0  0.78125 0.125 0  0.8125 0.125 0  0.84375 0.125 0  0.875 0.125 0  0.90625 0.125 0  0.9375 0.125 0  0.96875 0.125 0  1 0.125 0  0 0.15625 0  0.03125 0.15625 0  0.0625 0.15625 0  0.09375 0.15625 0  0.125 0.15625 0  0.15625 0.15625 0  0.1875 0.15625 0  0.21875 0.15625 0  0.25 0.15625 0  0.28125 0.15625 0  0.3125 0.15625 0  0.34375 0.15625 0  0.375 0.15625 0  0.40625 0.15625 0  0.4375 0.15625 0  0.46875 0.15625 0  0.5 0.15625 0  0.53125 0.15625 0  0.5625 0.15625 0  0.59375 0.15625 0  0.625 0.15625 0  0.65625 0.15625 0  0.6875 0.15625 0  0.71875 0.15625 0  0.75 0.15625 0  0.78125 0.15625 0  0.8125 0.15625 0  0.84375 0.15625 0  0.875 0.15625 0  0.90625 0.15625 0  0.9375 0.15625 0  0.96875 0.15625 0  1 0.15625 0  0 0.1875 0  0.03125 0.1875 0  0.0625 0.1875 0  0.09375 0.1875 0  0.125 0.1875 0  0.15625 0.1875 0  0.1875 0.1875 0  0.21875 0.1875 0  0.25 0.1875 0  0.28125 0.1875 0  0.3125 0.1875 0  0.34375 0.1875 0  0.375 0.1875 0  0.40625 0.1875 0  0.4375 0.1875 0  0.46875 0.1875 0  0.5 0.1875 0  0.53125 0.1875 0  0.5625 0.1875 0  0.59375 0.1875 0  0.625 0.1875 0  0.65625 0.1875 0  0.6875 0.1875 0  0.71875 0.1875 0  0.75 0.1875 0  0.78125 0.1875 0  0.8125 0.1875 0  0.84375 0.1875 0  0.875 0.1875 0  0.90625 0.1875 0  0.9375 0.1875 0  0.96875 0.1875 0  1 0.1875 0  0 0.21875 0  0.03125 0.21875 0  0.0625 0.21875 0  0.09375 0.21875 0  0.125 0.21875 0  0.15625 0.21875 0  0.1875 0.21875 0  0.21875 0.21875 0  0.25 0.21875 0  0.28125 0.21875 0  0.3125 0.21875 0  0.34375 0.21875 0  0.375 0.21875 0  0.40625 0.21875 0  0.4375 0.21875 0  0.46875 0.21875 0  0.5 0.21875 0  0.53125 0.21875 0  0.5625 0.21875 0  0.59375 0.21875 0  0.625 0.21875 0  0.65625 0.21875 0  0.6875 0.21875 0  0.71875 0.21875 0  0.75 0.21875 0  0.78125 0.21875 0  0.8125 0.21875 0  0.84375 0.21875 0  0.875 0.21875 0  0.90625 0.21875 0  0.9375 0.21875 0  0.96875 0.21875 0  1 0.21875 0  0 0.25 0  0.03125 0.25 0  0.0625 0.25 0  0.09375 0.25 0  0.125 0.25 0  0.15625 0.25 0  0.1875 0.25 0  0.21875 0.25 0  0.25 0.25 0  0.28125 0.25 0  0.3125 0.25 0  0.34375 0.25 0  0.375 0.25 0  0.40625 0.25 0  0.4375 0.25 0  0.46875 0.25 0  0.5 0.25 0  0.53125 0.25 0  0.5625 0.25 0  0.59375 0.25 0  0.625 0.25 0  0.65625 0.25 0  0.6875 0.25 0  0.71875 0.25 0  0.75 0.25 0  0.78125 0.25 0  0.8125 0.25 0  0.84375 0.25 0  0.875 0.25 0  0.90625 0.25 0  0.9375 0.25 0  0.96875 0.25 0  1 0.25 0  0 0.28125 0  0.03125 0.28125 0  0.0625 0.28125 0  0.09375 0.28125 0  0.125 0.28125 0  0.15625 0.28125 0  0.1875 0.28125 0  0.21875 0.28125 0  0.25 0.28125 0  0.28125 0.28125 0  0.3125 0.28125 0  0.34375 0.28125 0  0.375 0.28125 0  0.40625 0.28125 0  0.4375 0.28125 0  0.46875 0.28125 0  0.5 0.28125 0  0.53125 0.28125 0  0.5625 0.28125 0  0.59375 0.28125 0  0.625 0.28125 0  0.65625 0.28125 0  0.6875 0.28125 0  0.71875 0.28125 0  0.75 0.28125 0  0.78125 0.28125 0  0.8125 0.28125 0  0.84375 0.28125 0  0.875 0.28125 0  0.90625 0.28125 0  0.9375 0.28125 0  0.96875 0.28125 0  1 0.28125 0  0 0.3125 0  0.03125 0.3125 0  0.0625 0.3125 0  0.09375 0.3125 0  0.125 0.3125 0  0.15625 0.3125 0  0.1875 0.3125 0  0.21875 0.3125 0  0.25 0.3125 0  0.28125 0.3125 0  0.3125 0.3125 0  0.34375 0.3125 0  0.375 0.3125 0  0.40625 0.3125 0  0.4375 0.3125 0  0.46875 0.3125 0  0.5 0.3125 0  0.53125 0.3125 0  0.5625 0.3125 0  0.59375 0.3125 0  0.625 0.3125 0  0.65625 0.3125 0  0.6875 0.3125 0  0.71875 0.3125 0  0.75 0.3125 0  0.78125 0.3125 0  0.8125 0.3125 0  0.84375 0.3125 0  0.875 0.3125 0  0.90625 0.3125 0  0.9375 0.3125 0  0.96875 0.3125 0  1 0.3125 0  0 0.34375 0  0.03125 0.34375 0  0.0625 0.34375 0  0.09375 0.34375 0  0.125 0.34375 0  0.15625 0.34375 0  0.1875 0.34375 0  0.21875 0.34375 0  0.25 0.34375 0  0.28125 0.34375 0  0.3125 0.34375 0  0.34375 0.34375 0  0.375 0.34375 0  0.40625 0.34375 0  0.4375 0.34375 0  0.46875 0.34375 0  0.5 0.34375 0  0.53125 0.34375 0  0.5625 0.34375 0  0.59375 0.34375 0  0.625 0.34375 0  0.65625 0.34375 0  0.6875 0.34375 0  0.71875 0.34375 0  0.75 0.34375 0  0.78125 0.34375 0  0.8125 0.34375 0  0.84375 0.34375 0  0.875 0.34375 0  0.90625 0.34375 0  0.9375 0.34375 0  0.96875 0.34375 0  1 0.34375 0  0 0.375 0  0.03125 0.375 0  0.0625 0.375 0  0.09375 0.375 0  0.125 0.375 0  0.15625 0.375 0  0.1875 0.375 0  0.21875 0.375 0  0.25 0.375 0  0.28125 0.375 0  0.3125 0.375 0  0.34375 0.375 0  0.375 0.375 0  0.40625 0.375 0  0.4375 0.375 0  0.46875 0.375 0  0.5 0.375 0  0.53125 0.375 0  0.5625 0.375 0  0.59375 0.375 0  0.625 0.375 0  0.65625 0.375 0  0.6875 0.375 0  0.71875 0.375 0  0.75 0.375 0  0.78125 0.375 0  0.8125 0.375 0  0.84375 0.375 0  0.875 0.375 0  0.90625 0.375 0  0.9375 0.375 0  0.96875 0.375 0  1 0.375 0  0 0.40625 0  0.03125 0.40625 0  0.0625 0.40625 0  0.09375 0.40625 0  0.125 0.40625 0  0.15625 0.40625 0  0.1875 0.40625 0  0.21875 0.40625 0  0.25 0.40625 0  0.28125 0.40625 0  0.3125 0.40625 0  0.34375 0.40625 0  0.375 0.40625 0  0.40625 0.40625 0  0.4375 0.40625 0  0.46875 0.40625 0  0.5 0.40625 0  0.53125 0.40625 0  0.5625 0.40625 0  0.59375 0.40625 0  0.625 0.40625 0  0.65625 0.40625 0  0.6875 0.40625 0  0.71875 0.40625 0  0.75 0.40625 0  0.78125 0.40625 0  0.8125 0.40625 0  0.84375 0.40625 0  0.875 0.40625 0  0.90625 0.40625 0  0.9375 0.40625 0  0.96875 0.40625 0  1 0.40625 0  0 0.4375 0  0.03125 0.4375 0  0.0625 0.4375 0  0.09375 0.4375 0  0.125 0.4375 0  0.15625 0.4375 0  0.1875 0.4375 0  0.21875 0.4375 0  0.25 0.4375 0  0.28125 0.4375 0  0.3125 0.4375 0  0.34375 0.4375 0  0.375 0.4375 0  0.40625 0.4375 0  0.4375 0.4375 0  0.46875 0.4375 0  0.5 0.4375 0  0.53125 0.4375 0  0.5625 0.4375 0  0.59375 0.4375 0  0.625 0.4375 0  0.65625 0.4375 0  0.6875 0.4375 0  0.71875 0.4375 0  0.75 0.4375 0  0.78125 0.4375 0  0.8125 0.4375 0  0.84375 0.4375 0  0.875 0.4375 0  0.90625 0.4375 0  0.9375 0.4375 0  0.96875 0.4375 0  1 0.4375 0  0 0.46875 0  0.03125 0.46875 0  0.0625 0.46875 0  0.09375 0.46875 0  0.125 0.46875 0  0.15625 0.46875 0  0.1875 0.46875 0  0.21875 0.46875 0  0.25 0.46875 0  0.28125 0.46875 0  0.3125 0.46875 0  0.34375 0.46875 0  0.375 0.46875 0  0.40625 0.46875 0  0.4375 0.46875 0  0.46875 0.46875 0  0.5 0.46875 0  0.53125 0.46875 0  0.5625 0.46875 0  0.59375 0.46875 0  0.625 0.46875 0  0.65625 0.46875 0  0.6875 0.46875 0  0.71875 0.46875 0  0.75 0.46875 0  0.78125 0.46875 0  0.8125 0.46875 0  0.84375 0.46875 0  0.875 0.46875 0  0.90625 0.46875 0  0.9375 0.46875 0  0.96875 0.46875 0  1 0.46875 0  0 0.5 0  0.03125 0.5 0  0.0625 0.5 0  0.09375 0.5 0  0.125 0.5 0  0.15625 0.5 0  0.1875 0.5 0  0.21875 0.5 0  0.25 0.5 0  0.28125 0.5 0  0.3125 0.5 0  0.34375 0.5 0  0.375 0.5 0  0.40625 0.5 0  0.4375 0.5 0  0.46875 0.5 0  0.5 0.5 0  0.53125 0.5 0  0.5625 0.5 0  0.59375 0.5 0  0.625 0.5 0  0.65625 0.5 0  0.6875 0.5 0  0.71875 0.5 0  0.75 0.5 0  0.78125 0.5 0  0.8125 0.5 0  0.84375 0.5 0  0.875 0.5 0  0.90625 0.5 0  0.9375 0.5 0  0.96875 0.5 0  1 0.5 0  0 0.53125 0  0.03125 0.53125 0  0.0625 0.53125 0  0.09375 0.53125 0  0.125 0.53125 0  0.15625 0.53125 0  0.1875 0.53125 0  0.21875 0.53125 0  0.25 0.53125 0  0.28125 0.53125 0  0.3125 0.53125 0  0.34375 0.53125 0  0.375 0.53125 0  0.40625 0.53125 0  0.4375 0.53125 0  0.46875 0.53125 0  0.5 0.53125 0  0.53125 0.53125 0  0.5625 0.53125 0  0.59375 0.53125 0  0.625 0.53125 0  0.65625 0.53125 0  0.6875 0.53125 0  0.71875 0.53125 0  0.75 0.53125 0  0.78125 0.531
[...]
<PointData  Scalars="theta_dt"> 
<DataArray  type="Float64"  Name="theta_dt"  format="ascii">2.6511502891000921e-05  4.3475949366569021e-05  4.3475949366568865e-05  2.6511502891000643e-05  4.9837033160551232e-06  7.1610438409910568e-06  5.3945205694846307e-05  9.5817899717721191e-05  7.3349387413905974e-05  9.2693766935178967e-05  5.4539879148434560e-05  5.9528480057384913e-05  6.5385032654923290e-06  5.8084229176774580e-06  1.2360870601772291e-05  1.1096808952366943e-05  5.8289888206282263e-05  6.9377580354370514e-05  9.3133643006127501e-05  1.1778273537086253e-04  1.3894420830623525e-04  1.0051837445067748e-04  1.2039616001705033e-04  1.0388869053963210e-04  1.1057062905015084e-04  8.4307430566097347e-05  1.1757085427475933e-04  7.0928779035409433e-05  7.4855874622405466e-05  1.1309874122159814e-04  4.2443202343312848e-05  5.2669607382309690e-05  6.0878974860404162e-05  5.0956460774386929e-06  2.8201611486630191e-05  4.7281591621246862e-05  4.7281591621246673e-05  2.8201611486629882e-05  4.9463403429603833e-06  6.5592272331805110e-06  5.0421910122774525e-05  9.8019881120541328e-05  7.9050662351005650e-05  9.9956817159904701e-05  5.2238017190874521e-05  5.8679432376479081e-05  6.8026507982418386e-06  5.9837506933163227e-06  1.2415491400170970e-05  1.1772890948886541e-05  5.3736175029565570e-05  7.0704678592991809e-05  8.5049044979236852e-05  1.2024277496114718e-04  1.3202782051106523e-04  1.1057062905015144e-04  1.2888607641467332e-04  9.4589944574381845e-05  1.2075627366543128e-04  9.1285105583307320e-05  1.1374743641930082e-04  6.6072951907805049e-05  8.2289917270965616e-05  1.1778273537086060e-04  4.5135368265416128e-05  5.6868786783339019e-05  4.3506694788849573e-06  5.4204935699091009e-06  3.0670223348756789e-05  5.1977193274118932e-05  5.1977193274118736e-05  3.0670223348756457e-05  5.0956460774386167e-06  6.1101785681936408e-06  4.6482857851671372e-05  9.8453015997382442e-05  8.5593262784641952e-05  1.0604676651393030e-04  5.1846387210707479e-05  5.6771170410702384e-05  7.2341419121982941e-06  6.3652148646405833e-06  1.2238410712566321e-05  1.2260466245736607e-05  4.9071530110778379e-05  7.3561061108353196e-05  7.7436575712937306e-05  8.6366830760354233e-05  1.2340475513564921e-04  1.2075627366543192e-04  1.3623554433153651e-04  8.6640572829038026e-05  1.3021817072260972e-04  9.8562975194216093e-05  1.0808529770497323e-04  6.3284335269943751e-05  9.0519250503799418e-05  1.2024277496114523e-04  4.8643634018424982e-05  2.5578515860226983e-05  4.7315028326406166e-06  5.8949733609523304e-06  3.3716126553623985e-05  5.7175128308512890e-05  5.7175128308512687e-05  3.3716126553623626e-05  5.4204935699090221e-06  5.8522977694161902e-06  4.2447847422119824e-05  9.7048792257246945e-05  9.2417339967204663e-05  1.1043870252077063e-04  5.3411375138308188e-05  5.3945205694845406e-05  7.7964347060385806e-06  6.9223902915584976e-06  1.1840416172767303e-05  1.2516541401954471e-05  4.4679293667561511e-05  7.8227028117811609e-05  7.0928779035410599e-05  8.9855945062268270e-05  1.1376414890319209e-04  1.3021817072261040e-04  1.4179307364908656e-04  8.0709106792037848e-05  1.3815181734328917e-04  1.0551329170913976e-04  1.0102597805080097e-04  6.2809890712140317e-05  9.8857784202970660e-05  4.0795129038731067e-05  4.5099533679021395e-05  2.8136473597892629e-05  5.2013950625699600e-06  6.4804114925419126e-06  3.7087879131968923e-05  6.2442038181291431e-05  6.2442038181291187e-05  3.7087879131968509e-05  5.8949733609522415e-06  5.8084229176775943e-06  3.8648475730170189e-05  9.3892754245480107e-05  9.8934287766047887e-05  1.1274535280907745e-04  5.6816350880225739e-05  5.0421910122773699e-05  8.4417038988766058e-06  7.6098626498337855e-06  1.1251021977029620e-05  4.0795129038732097e-05  4.0924430333187335e-05  8.4307430566098730e-05  6.6072951907806133e-05  9.5555494102849689e-05  1.0388869053963261e-04  1.3815181734328990e-04  1.4505160584551131e-04  7.7302769531047065e-05  1.4387338680689666e-04  1.1152997383486439e-04  9.3133643006125996e-05  6.4705812993068698e-05  1.0660381800342436e-04  2.9912137231018633e-05  4.7847258984800576e-05  3.0728374568858157e-05  5.7215561547795799e-06  7.1284795357070239e-06  4.0504373725676712e-05  6.7334704370616862e-05  6.7334704370616618e-05  4.0504373725676271e-05  6.4804114925418169e-06  5.9837506933164642e-06  3.5400444426711429e-05  8.9218945186184473e-05  1.0457581549379773e-04  5.8363135206542661e-05  6.1789737518509345e-05  4.6482857851670606e-05  9.1147339608712832e-06  8.3708804959857988e-06  1.0516189744908978e-05  4.2443202343313952e-05  3.8122719071607053e-05  9.1285105583308851e-05  6.3284335269944768e-05  1.0298279735429411e-04  9.4589944574382333e-05  1.4387338680689745e-04  1.4569256672727614e-04  7.6723228351532579e-05  1.4687836225103857e-04  1.1607967562094498e-04  8.5049044979235538e-05  6.8830809270208697e-05  3.0636737863460561e-05  3.1120550980773539e-05  4.9828857353821616e-05  3.3136106341954329e-05  6.2486196086062085e-06  7.7851472224313039e-06  4.3678107088960737e-05  7.1437125306342993e-05  7.1437125306342736e-05  4.3678107088960262e-05  7.1284795357069146e-06  6.3652148646407332e-06  3.2976908582528107e-05  8.3391833944871155e-05  1.0884183258474966e-04  6.0720934467681872e-05  6.7926163634335424e-05  4.2447847422119119e-05  9.7574731421160625e-06  9.1419967913486648e-06  9.6946456781100289e-06  4.5135368265417321e-05  3.6513745268954244e-05  9.8562975194217733e-05  6.2809890712141333e-05  1.1150613257488389e-04  8.6640572829038514e-05  1.4687836225103936e-04  1.4361457085394349e-04  7.9039125998339163e-05  7.0704678592990630e-05  1.1874729083392422e-04  7.7436575712936019e-05  7.4314385189282319e-06  3.2797133536543806e-05  3.3094522834966516e-05  5.0869595297655893e-05  3.5154950230203444e-05  6.7382322282362855e-06  8.3951549624656907e-06  4.6339230838288932e-05  7.4395700029287313e-05  7.4395700029287042e-05  4.6339230838288424e-05  7.7851472224311887e-06  6.9223902915586585e-06  3.1585114311450466e-05  7.6877110641208885e-05  1.1134311566344945e-04  6.4572454181248442e-05  7.4719061893478177e-05  3.8648475730169539e-05  1.0313873319718736e-05  9.8583209202006034e-06  8.8530882044536505e-06  4.8643634018426235e-05  3.6240000626556077e-05  1.0551329170914151e-04  6.4705812993069755e-05  1.2039616001705094e-04  8.0709106792038282e-05  8.6366830760353691e-05  1.3894420830623446e-04  8.4077871134366968e-05  7.3561061108352031e-05  1.1927201696705757e-04  3.2768194215214455e-06  7.1897672739561422e-06  3.4667323764977717e-05  3.5666882063129569e-05  2.1977428131662057e-05  3.6610895534433241e-05  7.1487644377600864e-06  8.9066365201349831e-06  4.8258374091197362e-05  7.5949547177111862e-05  7.5949547177111591e-05  4.8258374091196840e-05  8.3951549624655636e-06  7.6098626498339642e-06  3.1348319763024746e-05  7.0203683972372655e-05  1.1183512387789210e-04  6.9591518792833337e-05  8.1602099613096508e-05  3.5400444426710839e-05  1.0734612662252896e-05  1.0458947038814507e-05  8.0606764626792858e-06  5.2669607382311100e-05  3.7333908351433977e-05  1.1152997383486622e-04  6.8830809270209822e-05  1.2888607641467403e-04  7.7302769531047513e-05  8.9855945062267971e-05  1.3202782051106453e-04  9.1437579288741337e-05  7.8227028117810308e-05  1.8532504631198866e-05  3.0524863813130261e-06  6.8318738487469126e-06  3.6081526417671615e-05  3.8618839088062950e-05  2.2865289341091450e-05  3.7375559830663889e-05  7.4448311352250552e-06  9.2755056419245780e-06  4.9266310529872418e-05  4.4659550847658788e-05  2.8969380094584980e-05  4.9266310529871882e-05  8.9066365201348492e-06  8.3708804959859987e-06  3.2294571654797263e-05  6.3919975710261510e-05  1.1024003271344766e-04  7.5351236516762153e-05  8.7996058641080059e-05  3.2976908582527517e-05  1.0981303703471648e-05  1.0892105234989883e-05  7.3832544173540287e-06  5.6868786783340476e-05  3.9713945412049344e-05  1.1607967562094679e-04  7.4855874622406645e-05  1.3623554433153721e-04  7.6723228351532958e-05  9.5555494102849133e-05  1.2340475513564851e-04  1.0051837445067693e-04  1.7260724527818499e-05  2.0239698554449624e-05  2.9236558377397311e-06  6.3856671734696924e-06  3.6910712304558521e-05  4.1697795656186672e-05  2.4315631194780962e-05  4.4691133291968349e-06  7.6003257353289704e-06  9.4692361664127033e-06  4.4659550847658930e-05  4.6463742065604371e-05  3.0139707609392946e-05  5.5680626123579489e-06  9.2755056419244390e-06  9.1419967913488816e-06  3.4353350946576502e-05  5.8548118784447890e-05  1.0665501402779691e-04  8.1358749690850214e-05  9.3357289177470185e-05  3.1585114311449930e-05  1.1029828406550079e-05  1.1119600461817927e-05  6.8777923527681698e-06  6.0878974860405693e-05  4.3190282811510055e-05  1.1874729083392609e-04  8.2289917270966957e-05  1.4179307364908718e-04  7.9039125998339610e-05  1.0298279735429356e-04  1.1376414890319152e-04  2.2128898208208774e-05  1.8689302359072377e-05  2.1825586710630334e-05  2.9017371023182563e-06  5.8868071199549164e-06  3.7073815102127642e-05  4.4638178464376437e-05  2.6205627875029733e-05  4.6496600402026319e-06  5.5680626123580379e-06  2.8969380094585282e-05  4.6463742065604615e-05  4.9410930215796538e-05  3.2051464716498934e-05  5.7930055299536925e-06  9.4692361664125610e-06  9.8583209202008406e-06  3.7360451788694022e-05  5.4539879148435028e-05  1.0134592308901006e-04  8.7095884355217060e-05  9.7223689382946278e-05  3.1348319763024224e-05  1.0872511266580398e-05  7.3599269245659022e-06  6.5875143247265738e-06  6.4350475312545567e-05  4.7479570807191726e-05  1.1927201696705954e-04  9.0519250503800895e-05  1.4505160584551212e-04  8.4077871134367402e-05  1.1150613257488323e-04  3.4582462452260609e-06  2.0683604820825189e-05  2.0179340682619530e-05  2.3155328107627820e-05  2.9893263014603971e-06  5.3757944752166243e-06  3.6545035655643365e-05  4.7183580338785524e-05  2.8374527504707534e-05  4.9445872751541030e-06  5.7930055299537755e-06  3.0139707609393281e-05  4.9410930215796707e-05  5.3251525318090442e-05  3.4542749496484240e-05  6.1604549968470452e-06  6.5385032654924815e-06  1.0458947038814752e-05  4.1070771030405122e-05  5.2238017190874975e-05  9.4726768755131060e-05  9.2062351064157996e-05  9.9254327610548128e-05  3.2294571654796707e-05  1.0518935935630006e-05  7.6572589682158576e-06  6.5381275324424041e-06  6.6975558618833389e-05  5.2227724929618714e-05  1.1757085427476130e-04  9.8857784202972259e-05  1.4569256672727695e-04  9.1437579288741825e-05  4.2172558295651438e-06  3.8016895648842158e-06  1.9067763605256652e-05  2.1602317257041301e-05  2.4114308023839911e-05  3.1798958854636422e-06  4.8946242253388045e-06  3.5356586845637994e-05  4.9108365330297296e-05  3.0636737863460378e-05  5.3289183854749195e-06  6.1604549968471375e-06  3.2051464716499252e-05  5.3251525318090631e-05  5.7658869194488604e-05  3.7401668082532136e-05  6.6392926383458341e-06  6.8026507982419869e-06  1.0892105234990139e-05  4.5178018578433368e-05  5.1846387210707946e-05  8.7326539515687250e-05  9.5817899717720310e-05  3.5288596240886516e-05  3.4353350946575926e-05  9.9953226018304472e-06  8.1429577494766176e-06  6.7354815084446749e-06  6.8514717115905735e-05  5.7038885449981082e-05  1.1374743641930267e-04  1.0660381800342609e-04  1.4361457085394424e-04  2.1779682466887809e-06  4.5534841534225340e-06  4.1818742985035512e-06  1.7412559330576540e-05  2.2834145721581698e-05  2.4617965476217608e-05  3.4582462452260457e-06  4.4832783080104850e-06  3.3596600814416957e-05  5.0236919676601887e-05  3.2797133536543644e-05  5.7699644526768793e-06  6.6392926383459307e-06  3.4542749496484606e-05  5.7658869194488847e-05  6.2255826488107329e-05  4.0383583497930782e-05  7.1887913724842260e-06  7.2341419121984593e-06  1.1119600461818188e-05  4.9339767911104201e-05  5.3411375138308669e-05  7.9746035346884862e-05  9.8019881120540487e-05  3.6714212357103535e-05  3.7360451788693372e-05  9.3425032194432844e-06  8.7758906555004641e-06  7.1648685273521680e-06  6.8817473181517679e-05  6.1508185851542009e-05  1.0808529770497494e-04  1.1309874122159997e-04  1.1303482529996217e-05  1.9949310399287193e-06  4.8745799406551583e-06  4.5671039548439604e-06  1.5854016576992496e-05  2.3765631222752216e-05  3.2664662659747718e-06  3.8016895648841993e-06  4.1763503624755858e-06  3.1402323244030259e-05  5.0458908948250221e-05  3.4667323764977534e-05  6.2299852707262975e-06  7.1887913724843353e-06  3.7401668082532543e-05  6.2255826488107559e-05  6.6645889776455636e-05  4.3231292658134170e-05  7.7619307245685457e-06  7.7964347060387669e-06  3.5288596240887051e-05  5.3205801456436986e-05  5.6816350880226221e-05  7.2608221590885513e-05  9.8453015997381494e-05  3.9042989308596500e-05  4.1070771030404431e-05  8.6126497007104707e-06  9.5022241775812071e-06  7.7920411783045517e-06  6.7835937688687334e-05  6.5255621467610620e-05  1.0102597805080259e-04  9.4969978723629263e-06  1.9886280281650502e-06  1.8583568539195431e-06  5.1525430060119260e-06  4.9249608690933495e-06  1.4521639525769556e-05  2.4311786775451143e-05  3.3984275069395649e-06  4.1818742985035326e-06  4.0000870085605295e-06  2.8949116049159584e-05  4.9739219488982090e-05  3.6081526417671419e-05  6.6693020570706451e-06  7.7619307245686643e-06  4.0383583497931223e-05  6.6645889776455894e-05  7.0446236891740297e-05  4.5696469713980247e-05  8.3092749498860175e-06  8.4417038988768023e-06  3.6714212357104152e-05  5.6447407636150526e-05  6.1789737518509887e-05  6.6506201468224743e-05  9.7048792257246118e-05  4.2077708810185022e-05  4.5178018578432595e-05  7.8650164230979738e-06  1.0259806130695664e-05  8.5658797945928525e-06  6.5629905105181767e-05  6.7958188674454155e-05  3.3127376215194468e-06  8.7550749474538133e-06  2.0689661676240594e-06  1.7799246862580362e-06  5.3627334446111395e-06  5.2250180649457930e-06  1.3527479297643808e-05  2.4419216846273432e-05  3.6139892510538748e-06  4.5671039548439392e-06  3.9700982363966700e-06  2.6436146955103392e-05  4.8121694286126002e-05  3.6910712304558331e-05  7.0496055224240939e-06  8.3092749498861412e-06  4.3231292658134678e-05  7.0446236891740554e-05  7.3319987855616190e-05  4.7560590207571515e-05  8.7830945536429072e-06  9.1147339608715085e-06  3.9042989308597137e-05  5.8785181905368217e-05  6.7926163634336048e-05  6.1953146676711868e-05  9.3892754245479280e-05  4.5560255669635058e-05  4.9339767911103361e-05  7.1610438409908925e-06  1.0983291799118092e-05  9.4225033227219092e-06  6.2362968827656660e-05  2.6194613501214745e-06  3.3819282858006174e-06  7.9950782442129942e-06  2.2002003795340783e-06  1.7665805375505724e-06  5.4859738761808527e-06  5.4414126400016198e-06  1.2956550456892579e-05  2.4070928440238578e-05  3.8948961143070357e-06  4.9249608690933266e-06  4.0899360138313625e-06  2.4069931599431427e-05  4.5726284624214011e-05  3.7073815102127459e-05  7.3371838453960391e-06  8.7830945536430393e-06  4.5696469713980714e-05  7.3319987855616502e-05  7.5004947035359247e-05  4.8653575291285031e-05  9.1413880204484434e-06  9.7574731421162929e-06  4.2077708810185700e-05  6.0012983877821527e-05  7.4719061893478828e-05  5.9338406898903724e-05  8.9218945186183727e-05  4.9192629188671717e-05  5.3205801456436078e-05  6.5592272331803568e-06  1.1609591807192302e-05  1.0290493955098737e-05  2.0689661676240636e-06  2.3920752909149780e-06  6.6466288683300982e-06  7.2794642425438324e-06  2.3712167673008960e-06  1.8199049322314437e-06  5.5102155564609031e-06  5.5550633416883365e-06  1.2859414809880465e-05  2.3288139047717925e-05  4.2172558295651268e-06  5.2250180649457693e-06  4.3506694788849988e-06  2.2047086200485088e-05  4.2739787231746390e-05  3.6545035655643182e-05  7.5057989207027567e-06  9.1413880204485755e-06  4.7560590207572023e-05  7.5004947035359518e-05  7.5336382435252139e-05  4.8868568006035978e-05  9.3514653283031410e-06  1.0313873319718982e-05  4.5560255669635830e-05  5.8363135206543224e-05  8.1602099613097226e-05  5.8893545084335849e-05  8.3391833944870396e-05  5.2661521461747090e-05  5.6447407636149557e-05  6.1101785681934968e-06  1.2083188085974327e-05  5.9730659751498850e-07  2.2002003795340826e-06  2.1779682466887851e-06  6.9151445431538597e-06  6.6676955431191921e-06  2.5674696940771769e-06  1.9359238913164281e-06  5.4316240027206745e-06  1.4475758208106574e-05  1.3247577419006611e-05  2.2128898208208727e-05  4.5534841534225120e-06  5.4414126400015952e-06  4.7315028326406598e-06  2.0537729339802308e-05  3.9400876517103808e-05  3.5356586845637811e-05  7.5389658992171964e-06  9.3514653283032799e-06  4.8653575291285553e-05  7.5336382435252451e-05  7.4261868509601340e-05  4.8171561391811730e-05  9.3927880246475354e-06  1.0734612662253149e-05  4.9192629188672571e-05  6.0720934467682448e-05  8.7996058641080858e-05  6.0671252115223449e-05  7.6877110641208207e-05  5.5664438248437697e-05  5.8785181905367221e-05  5.8522977694160513e-06  1.0956132475759790e-06  5.9282857205541380e-07  2.3712167673009002e-06  1.9949310399287236e-06  7.3537711183804671e-06  6.2112210720061174e-06  2.7721658440575344e-06  2.1053838771241056e-06  5.2549869584103019e-06  1.5060561130134614e-05  1.4092110622543986e-05  2.0683604820825135e-05  4.8745799406551312e-06  5.5550633416883120e-06  5.2013950625700082e-06  1.9670932078787240e-05  3.5980627525802383e-05  3.3596600814416774e-05  7.4314385189281642e-06  9.3927880246476709e-06  4.8868568006036486e-05  7.4261868509601598e-05  7.1846863908411825e-05  4.6605016612606912e-05  9.2588197983148805e-06  1.0981303703471906e-05  5.2661521461748025e-05  6.4572454181248997e-05  9.3357289177471025e-05  6.4539045092826974e-05  7.0203683972372031e-05  5.7935187405924885e-05  6.0012983877820511e-05  1.0674778207615205e-06  1.1207914241270528e-06  6.1072315658322238e-07  2.5674696940771824e-06  1.8583568539195467e-06  7.9253624083500113e-06  5.9490757625760191e-06  2.9676492901496864e-06  2.3144725239815786e-06  4.9934033479382379e-06  1.6015850250741942e-05  1.5325655431205166e-05  1.9067763605256608e-05  5.1525430060119039e-06  4.4691133291968798e-06  5.7215561547796307e-06  1.9523458511562572e-05  3.2760116098669833e-05  3.1402323244030069e-05  7.1897672739560803e-06  9.2588197983150126e-06  4.8171561391812252e-05  7.1846863908412082e-05  6.8270458826724859e-05  4.4285104382924844e-05  8.9577219015978896e-06  1.1029828406550345e-05  5.5664438248438625e-05  6.9591518792833933e-05  9.7223689382947131e-05  7.0188433332999244e-05  6.3919975710260914e-05  5.9266590052117048e-05  6.2362684104175789e-07  1.1116875070313050e-06  1.1257440301688494e-06  6.4965676441129905e-07  2.7721658440575386e-06  1.7799246862580389e-06  8.5813022573971606e-06  5.9044753633228005e-06  3.1368734907241841e-06  2.5459293815132929e-06  4.6672717542451991e-06  1.7260724527818540e-05  1.6847667920771544e-05  1.7412559330576503e-05  5.3627334446111166e-06  4.6496600402026751e-06  6.2486196086062610e-06  2.0112775887746084e-05  3.0006944580695593e-05  2.8949116049159428e-05  6.8318738487468524e-06  8.9577219015980200e-06  4.6605016612607413e-05  6.8270458826725076e-05  6.3811545338691064e-05  4.1392734056936756e-05  8.5118229383522238e-06  1.0872511266580655e-05  5.7935187405925868e-05  7.5351236516762858e-05  9.9254327610549009e-05  7.7158945793980605e-05  5.8548118784447355e-05  1.1257440301688494e-06  5.9730659751498850e-07  1.1349064895987486e-06  1.1096876760138790e-06  7.0652409611313500e-07  2.9676492901496919e-06  1.7665805375505741e-06  9.2654620501920307e-06  6.0827024907957787e-06  3.2648376463025556e-06  2.7804575931953780e-06  4.3026559085017603e-06  1.8689302359072404e-05  1.8532504631198913e-05  1.5854016576992462e-05  5.4859738761808315e-06  4.9445872751541496e-06  6.7382322282363456e-06  2.1394965567810713e-05  2.7952650999260612e-05  2.6436146955103237e-05  6.3856671734696374e-06  8.5118229383523525e-06  4.4285104382925325e-05  6.3811545338691295e-05  5.8826470160520856e-05  3.8159057611575367e-05  7.9558946091768899e-06  1.0518935935630252e-05  5.9266590052118024e-05  8.1358749690850959e-05  6.6296074219803050e-05  8.4875160585423380e-05  7.3834258982807836e-07  1.1096876760138790e-06  5.9282857205541380e-07  6.6734320299999954e-07  1.073600503