<?xml version="1.0"?>
<VTKFile type="UnstructuredGrid"  version="0.1"  >
<UnstructuredGrid>
<Piece  NumberOfPoints="1089" NumberOfCells="2048">
<Points>
<DataArray  type="Float64"  NumberOfComponents="3"  format="ascii">0 0 0  0.03125 0 0  0.0625 0 0  0.09375 0 0  0.125 0 0  0.15625 0 0  0.1875 0 0  0.21875 0 0  0.25 0 0  0.28125 0 0  0.3125 0 0  0.34375 0 0  0.375 0 0  0.40625 0 0  0.4375 0 0  0.46875 0 0  0.5 0 0  0.53125 0 0  0.5625 0 0  0.59375 0 0  0.625 0 0  0.65625 0 0  0.6875 0 0  0.71875 0 0  0.75 0 0  0.78125 0 0  0.8125 0 0  0.84375 0 0  0.875 0 0  0.90625 0 0  0.9375 0 0  0.96875 0 0  1 0 0  0 0.03125 0  0.03125 0.03125 0  0.0625 0.03125 0  0.09375 0.03125 0  0.125 0.03125 0  0.15625 0.03125 0  0.1875 0.03125 0  0.21875 0.03125 0  0.25 0.03125 0  0.28125 0.03125 0  0.3125 0.03125 0  0.34375 0.03125 0  0.375 0.03125 0  0.40625 0.03125 0  0.4375 0.03125 0  0.46875 0.03125 0  0.5 0.03125 0  0.53125 0.03125 0  0.5625 0.03125 0  0.59375 0.03125 0  0.625 0.03125 0  0.65625 0.03125 0  0.6875 0.03125 0  0.71875 0.03125 0  0.75 0.03125 0  0.78125 0.03125 0  0.8125 0.03125 0  0.84375 0.03125 0  0.875 0.03125 0  0.90625 0.03125 0  0.9375 0.03125 0  0.96875 0.03125 0  1 0.03125 0  0 0.0625 0  0.03125 0.0625 0  0.0625 0.0625 0  0.09375 0.0625 0  0.125 0.0625 0  0.15625 0.0625 0  0.1875 0.0625 0  0.21875 0.0625 0  0.25 0.0625 0  0.28125 0.0625 0  0.3125 0.0625 0  0.34375 0.0625 0  0.375 0.0625 0  0.40625 0.0625 0  0.4375 0.0625 0  0.46875 0.0625 0  0.5 0.0625 0  0.53125 0.0625 0  0.5625 0.0625 0  0.59375 0.0625 0  0.625 0.0625 0  0.65625 0.0625 0  0.6875 0.0625 0  0.71875 0.0625 0  0.75 0.0625 0  0.78125 0.0625 0  0.8125 0.0625 0  0.84375 0.0625 0  0.875 0.0625 0  0.90625 0.0625 0  0.9375 0.0625 0  0.96875 0.0625 0  1 0.0625 0  0 0.09375 0  0.03125 0.09375 0  0.0625 0.09375 0  0.09375 0.09375 0  0.125 0.09375 0  0.15625 0.09375 0  0.1875 0.09375 0  0.21875 0.09375 0  0.25 0.09375 0  0.28125 0.09375 0  0.3125 0.09375 0  0.34375 0.09375 0  0.375 0.09375 0  0.40625 0.09375 0  0.4375 0.09375 0  0.46875 0.09375 0  0.5 0.09375 0  0.53125 0.09375 0  0.5625 0.09375 0  0.59375 0.09375 0  0.625 0.09375 0  0.65625 0.09375 0  0.6875 0.09375 0  0.71875 0.09375 0  0.75 0.09375 0  0.78125 0.09375 0  0.8125 0.09375 0  0.84375 0.09375 0  0.875 0.09375 0  0.90625 0.09375 0  0.9375 0.09375 0  0.96875 0.09375 0  1 0.09375 0  0 0.125 0  0.03125 0.125 0  0.0625 0.125 0  0.09375 0.125 0  0.125 0.125 0  0.15625 0.125 0  0.1875 0.125 0  0.21875 0.125 0  0.25 0.125 0  0.28125 0.125 0  0.3125 0.125 0  0.34375 0.125 0  0.375 0.125 0  0.40625 0.125 0  0.4375 0.125 0  0.46875 0.125 0  0.5 0.125 0  0.53125 0.125 0  0.5625 0.125 0  0.59375 0.125 0  0.625 0.125 0  0.65625 0.125 0  0.6875 0.125 0  0.71875 0.125 0  0.75 0.125 0  0.78125 0.125 0  0.8125 0.125 0  0.84375 0.125 0  0.875 0.125 0  0.90625 0.125 0  0.9375 0.125 0  0.96875 0.125 0  1 0.125 0  0 0.15625 0  0.03125 0.15625 0  0.0625 0.15625 0  0.09375 0.15625 0  0.125 0.15625 0  0.15625 0.15625 0  0.1875 0.15625 0  0.21875 0.15625 0  0.25 0.15625 0  0.28125 0.15625 0  0.3125 0.15625 0  0.34375 0.15625 0  0.375 0.15625 0  0.40625 0.15625 0  0.4375 0.15625 0  0.46875 0.15625 0  0.5 0.15625 0  0.53125 0.15625 0  0.5625 0.15625 0  0.59375 0.15625 0  0.625 0.15625 0  0.65625 0.15625 0  0.6875 0.15625 0  0.71875 0.15625 0  0.75 0.15625 0  0.78125 0.15625 0  0.8125 0.15625 0  0.84375 0.15625 0  0.875 0.15625 0  0.90625 0.15625 0  0.9375 0.15625 0  0.96875 0.15625 0  1 0.15625 0  0 0.1875 0  0.03125 0.1875 0  0.0625 0.1875 0  0.09375 0.1875 0  0.125 0.1875 0  0.15625 0.1875 0  0.1875 0.1875 0  0.21875 0.1875 0  0.25 0.1875 0  0.28125 0.1875 0  0.3125 0.1875 0  0.34375 0.1875 0  0.375 0.1875 0  0.40625 0.1875 0  0.4375 0.1875 0  0.46875 0.1875 0  0.5 0.1875 0  0.53125 0.1875 0  0.5625 0.1875 0  0.59375 0.1875 0  0.625 0.1875 0  0.65625 0.1875 0  0.6875 0.1875 0  0.71875 0.1875 0  0.75 0.1875 0  0.78125 0.1875 0  0.8125 0.1875 0  0.84375 0.1875 0  0.875 0.1875 0  0.90625 0.1875 0  0.9375 0.1875 0  0.96875 0.1875 0  1 0.1875 0  0 0.21875 0  0.03125 0.21875 0  0.0625 0.21875 0  0.09375 0.21875 0  0.125 0.21875 0  0.15625 0.21875 0  0.1875 0.21875 0  0.21875 0.21875 0  0.25 0.21875 0  0.28125 0.21875 0  0.3125 0.21875 0  0.34375 0.21875 0  0.375 0.21875 0  0.40625 0.21875 0  0.4375 0.21875 0  0.46875 0.21875 0  0.5 0.21875 0  0.53125 0.21875 0  0.5625 0.21875 0  0.59375 0.21875 0  0.625 0.21875 0  0.65625 0.21875 0  0.6875 0.21875 0  0.71875 0.21875 0  0.75 0.21875 0  0.78125 0.21875 0  0.8125 0.21875 0  0.84375 0.21875 0  0.875 0.21875 0  0.90625 0.21875 0  0.9375 0.21875 0  0.96875 0.21875 0  1 0.21875 0  0 0.25 0  0.03125 0.25 0  0.0625 0.25 0  0.09375 0.25 0  0.125 0.25 0  0.15625 0.25 0  0.1875 0.25 0  0.21875 0.25 0  0.25 0.25 0  0.28125 0.25 0  0.3125 0.25 0  0.34375 0.25 0  0.375 0.25 0  0.40625 0.25 0  0.4375 0.25 0  0.46875 0.25 0  0.5 0.25 0  0.53125 0.25 0  0.5625 0.25 0  0.59375 0.25 0  0.625 0.25 0  0.65625 0.25 0  0.6875 0.25 0  0.71875 0.25 0  0.75 0.25 0  0.78125 0.25 0  0.8125 0.25 0  0.84375 0.25 0  0.875 0.25 0  0.90625 0.25 0  0.9375 0.25 0  0.96875 0.25 0  1 0.25 0  0 0.28125 0  0.03125 0.28125 0  0.0625 0.28125 0  0.09375 0.28125 0  0.125 0.28125 0  0.15625 0.28125 0  0.1875 0.28125 0  0.21875 0.28125 0  0.25 0.28125 0  0.28125 0.28125 0  0.3125 0.28125 0  0.34375 0.28125 0  0.375 0.28125 0  0.40625 0.28125 0  0.4375 0.28125 0  0.46875 0.28125 0  0.5 0.28125 0  0.53125 0.28125 0  0.5625 0.28125 0  0.59375 0.28125 0  0.625 0.28125 0  0.65625 0.28125 0  0.6875 0.28125 0  0.71875 0.28125 0  0.75 0.28125 0  0.78125 0.28125 0  0.8125 0.28125 0  0.84375 0.28125 0  0.875 0.28125 0  0.90625 0.28125 0  0.9375 0.28125 0  0.96875 0.28125 0  1 0.28125 0  0 0.3125 0  0.03125 0.3125 0  0.0625 0.3125 0  0.09375 0.3125 0  0.125 0.3125 0  0.15625 0.3125 0  0.1875 0.3125 0  0.21875 0.3125 0  0.25 0.3125 0  0.28125 0.3125 0  0.3125 0.3125 0  0.34375 0.3125 0  0.375 0.3125 0  0.40625 0.3125 0  0.4375 0.3125 0  0.46875 0.3125 0  0.5 0.3125 0  0.53125 0.3125 0  0.5625 0.3125 0  0.59375 0.3125 0  0.625 0.3125 0  0.65625 0.3125 0  0.6875 0.3125 0  0.71875 0.3125 0  0.75 0.3125 0  0.78125 0.3125 0  0.8125 0.3125 0  0.84375 0.3125 0  0.875 0.3125 0  0.90625 0.3125 0  0.9375 0.3125 0  0.96875 0.3125 0  1 0.3125 0  0 0.34375 0  0.03125 0.34375 0  0.0625 0.34375 0  0.09375 0.34375 0  0.125 0.34375 0  0.15625 0.34375 0  0.1875 0.34375 0  0.21875 0.34375 0  0.25 0.34375 0  0.28125 0.34375 0  0.3125 0.34375 0  0.34375 0.34375 0  0.375 0.34375 0  0.40625 0.34375 0  0.4375 0.34375 0  0.46875 0.34375 0  0.5 0.34375 0  0.53125 0.34375 0  0.5625 0.34375 0  0.59375 0.34375 0  0.625 0.34375 0  0.65625 0.34375 0  0.6875 0.34375 0  0.71875 0.34375 0  0.75 0.34375 0  0.78125 0.34375 0  0.8125 0.34375 0  0.84375 0.34375 0  0.875 0.34375 0  0.90625 0.34375 0  0.9375 0.34375 0  0.96875 0.34375 0  1 0.34375 0  0 0.375 0  0.03125 0.375 0  0.0625 0.375 0  0.09375 0.375 0  0.125 0.375 0  0.15625 0.375 0  0.1875 0.375 0  0.21875 0.375 0  0.25 0.375 0  0.28125 0.375 0  0.3125 0.375 0  0.34375 0.375 0  0.375 0.375 0  0.40625 0.375 0  0.4375 0.375 0  0.46875 0.375 0  0.5 0.375 0  0.53125 0.375 0  0.5625 0.375 0  0.59375 0.375 0  0.625 0.375 0  0.65625 0.375 0  0.6875 0.375 0  0.71875 0.375 0  0.75 0.375 0  0.78125 0.375 0  0.8125 0.375 0  0.84375 0.375 0  0.875 0.375 0  0.90625 0.375 0  0.9375 0.375 0  0.96875 0.375 0  1 0.375 0  0 0.40625 0  0.03125 0.40625 0  0.0625 0.40625 0  0.09375 0.40625 0  0.125 0.40625 0  0.15625 0.40625 0  0.1875 0.40625 0  0.21875 0.40625 0  0.25 0.40625 0  0.28125 0.40625 0  0.3125 0.40625 0  0.34375 0.40625 0  0.375 0.40625 0  0.40625 0.40625 0  0.4375 0.40625 0  0.46875 0.40625 0  0.5 0.40625 0  0.53125 0.40625 0  0.5625 0.40625 0  0.59375 0.40625 0  0.625 0.40625 0  0.65625 0.40625 0  0.6875 0.40625 0  0.71875 0.40625 0  0.75 0.40625 0  0.78125 0.40625 0  0.8125 0.40625 0  0.84375 0.40625 0  0.875 0.40625 0  0.90625 0.40625 0  0.9375 0.40625 0  0.96875 0.40625 0  1 0.40625 0  0 0.4375 0  0.03125 0.4375 0  0.0625 0.4375 0  0.09375 0.4375 0  0.125 0.4375 0  0.15625 0.4375 0  0.1875 0.4375 0  0.21875 0.4375 0  0.25 0.4375 0  0.28125 0.4375 0  0.3125 0.4375 0  0.34375 0.4375 0  0.375 0.4375 0  0.40625 0.4375 0  0.4375 0.4375 0  0.46875 0.4375 0  0.5 0.4375 0  0.53125 0.4375 0  0.5625 0.4375 0  0.59375 0.4375 0  0.625 0.4375 0  0.65625 0.4375 0  0.6875 0.4375 0  0.71875 0.4375 0  0.75 0.4375 0  0.78125 0.4375 0  0.8125 0.4375 0  0.84375 0.4375 0  0.875 0.4375 0  0.90625 0.4375 0  0.9375 0.4375 0  0.96875 0.4375 0  1 0.4375 0  0 0.46875 0  0.03125 0.46875 0  0.0625 0.46875 0  0.09375 0.46875 0  0.125 0.46875 0  0.15625 0.46875 0  0.1875 0.46875 0  0.21875 0.46875 0  0.25 0.46875 0  0.28125 0.46875 0  0.3125 0.46875 0  0.34375 0.46875 0  0.375 0.46875 0  0.40625 0.46875 0  0.4375 0.46875 0  0.46875 0.46875 0  0.5 0.46875 0  0.53125 0.46875 0  0.5625 0.46875 0  0.59375 0.46875 0  0.625 0.46875 0  0.65625 0.46875 0  0.6875 0.46875 0  0.71875 0.46875 0  0.75 0.46875 0  0.78125 0.46875 0  0.8125 0.46875 0  0.84375 0.46875 0  0.875 0.46875 0  0.90625 0.46875 0  0.9375 0.46875 0  0.96875 0.46875 0  1 0.46875 0  0 0.5 0  0.03125 0.5 0  0.0625 0.5 0  0.09375 0.5 0  0.125 0.5 0  0.15625 0.5 0  0.1875 0.5 0  0.21875 0.5 0  0.25 0.5 0  0.28125 0.5 0  0.3125 0.5 0  0.34375 0.5 0  0.375 0.5 0  0.40625 0.5 0  0.4375 0.5 0  0.46875 0.5 0  0.5 0.5 0  0.53125 0.5 0  0.5625 0.5 0  0.59375 0.5 0  0.625 0.5 0  0.65625 0.5 0  0.6875 0.5 0  0.71875 0.5 0  0.75 0.5 0  0.78125 0.5 0  0.8125 0.5 0  0.84375 0.5 0  0.875 0.5 0  0.90625 0.5 0  0.9375 0.5 0  0.96875 0.5 0  1 0.5 0  0 0.53125 0  0.03125 0.53125 0  0.0625 0.53125 0  0.09375 0.53125 0  0.125 0.53125 0  0.15625 0.53125 0  0.1875 0.53125 0  0.21875 0.53125 0  0.25 0.53125 0  0.28125 0.53125 0  0.3125 0.53125 0  0.34375 0.53125 0  0.375 0.53125 0  0.40625 0.53125 0  0.4375 0.53125 0  0.46875 0.53125 0  0.5 0.53125 0  0.53125 0.53125 0  0.5625 0.53125 0  0.59375 0.53125 0  0.625 0.53125 0  0.65625 0.53125 0  0.6875 0.53125 0  0.71875 0.53125 0  0.75 0.53125 0  0.78125 0.531
[...]
<PointData  Scalars="theta"> 
<DataArray  type="Float64"  Name="theta"  format="ascii">-4.8326102315062119e-06  -6.9814473021369022e-06  -6.9814473021368768e-06  -4.8326102315061611e-06  -1.0629921481874828e-06  -1.5372939945395669e-06  -1.0645121653518243e-05  -2.1791492658358738e-05  -1.9352949777695716e-06  -7.9260594039716523e-06  -1.1943380793154645e-05  -1.2264020333592892e-05  -2.2311476689241479e-06  -1.1658694775260486e-06  -2.6566419462800287e-06  -8.1041789362361457e-07  -1.1628765296080655e-05  -3.1256353408558252e-06  -1.8964469264968643e-05  -6.2812867541871887e-06  -2.7443472443014307e-05  -1.1874570227030840e-05  -3.5048310373733788e-05  -2.1718849404868020e-05  -1.1104440237617879e-05  -1.4537587452896761e-06  -2.3551965211246665e-05  -1.5514499784667581e-05  -1.0367968328758610e-05  -7.0670157136539416e-06  -3.4430477307474355e-06  0.0000000000000000e+00  -1.6138778945789134e-05  -9.2885233519988517e-07  -4.5286662464614315e-06  -6.5487718490387854e-06  -6.5487718490387616e-06  -4.5286662464613832e-06  -9.9283184317768913e-07  -1.4347227018522620e-06  -1.0059112766228025e-05  -2.1066778881810757e-05  -9.8239008496748075e-07  -7.3000079179314002e-06  -1.1142036070224252e-05  -1.1754749580340799e-05  -1.7184198220864508e-06  -1.0907391762056041e-06  -2.5578317947386439e-06  -7.3563334509533095e-07  -1.0942104344593537e-05  -2.5793022889578260e-06  -1.7780254908759539e-05  -5.4172409153133487e-06  -2.6053329353111186e-05  -1.1104440237617937e-05  -3.4167196494620684e-05  -2.0306055509067132e-05  -1.0325628465868519e-05  0.0000000000000000e+00  -2.2466748883526641e-05  -1.4468943405888711e-05  -9.7211818928698649e-06  -6.2812867541870862e-06  -2.3445349346223228e-06  -1.6554970602699353e-05  -6.9863844581636462e-07  -8.7043275100949785e-07  -4.2480019894214778e-06  -6.1402388877700379e-06  -6.1402388877700159e-06  -4.2480019894214321e-06  -9.2885233519987151e-07  -1.3380335727458912e-06  -9.4651374156805038e-06  -2.0283228950772687e-05  0.0000000000000000e+00  -6.6263705258022693e-06  -1.0406632097156352e-05  -1.1213119781789873e-05  -1.1701537766235226e-06  -1.0221378208347481e-06  -2.4516163050895751e-06  -6.5384374023084395e-07  -1.0258837290242514e-05  -1.9865669324502104e-06  -1.6623663455289218e-05  -4.4703557417794836e-06  -2.4619105955638187e-05  -1.0325628465868575e-05  -3.3240139298795094e-05  -1.8951195364980634e-05  -9.5100434802049885e-06  -2.8692491068455148e-05  -2.1328700636247597e-05  -1.3498145300604077e-05  -9.0907107629594451e-06  -5.4172409153132614e-06  -1.1901275516600292e-06  -3.0216752364466847e-06  -6.5534030246393464e-07  -8.1648764927977511e-07  -3.9829982799902798e-06  -5.7420112450662543e-06  -5.7420112450662332e-06  -3.9829982799902366e-06  -8.7043275100948504e-07  -1.2482578081451203e-06  -8.8740978535111742e-06  -1.9440955780542344e-05  -2.6903446211463476e-05  -5.8896336301673700e-06  -9.7360137987431858e-06  -1.0645121653518062e-05  -5.9399082891593857e-07  -9.5879079182787876e-07  -2.3386518870580228e-06  -5.6390182464427016e-07  -9.5915080762731686e-06  -1.3527478958544474e-06  -1.5514499784667832e-05  -3.4430477307474914e-06  -2.3165385092774241e-05  -9.5100434802050393e-06  -3.2247447841509379e-05  -1.7674032486747071e-05  -8.6324662280894465e-06  -2.7971162369948433e-05  -2.0154565803973251e-05  -1.2607231860677267e-05  -8.4531322444333997e-06  -4.4703557417794108e-06  -3.2936918391988537e-06  -2.8257032834949371e-06  -6.1445811560875443e-07  -7.6555258467700016e-07  -3.7246793375313815e-06  -5.3392943268351633e-06  -5.3392943268351438e-06  -3.7246793375313412e-06  -8.1648764927976304e-07  -1.1658694775260759e-06  -8.2968448395752561e-06  -1.8545164603445460e-05  -2.6227094067804688e-05  -5.0794630982703509e-06  -9.1236733262696457e-06  -1.0059112766227852e-05  0.0000000000000000e+00  -8.9897841013983097e-07  -2.2201879875921896e-06  -4.6533683825516696e-07  -8.9515437066089757e-06  -6.8667884514412345e-07  -1.4468943405888944e-05  -2.3445349346223613e-06  -2.1718849404868135e-05  -8.6324662280894922e-06  -3.1175003191863493e-05  -1.6488187966552871e-05  -7.6726864593923545e-06  -2.7212221923817623e-05  -1.8964469264968338e-05  -1.1794803757216410e-05  -7.7854491331170120e-06  -1.3895391930635279e-06  -2.9897532673536271e-06  -2.6275221114983947e-06  -5.7460718938396883e-07  -7.1590236638192187e-07  -3.4634483297554031e-06  -4.9175622936325774e-06  -4.9175622936325596e-06  -3.4634483297553658e-06  -7.6555258467698883e-07  -1.0907391762056298e-06  -7.7432629590475084e-06  -1.7605763349536063e-05  -2.5515475358175385e-05  -4.1916184606673386e-06  -8.5582333366052341e-06  -9.4651374156803412e-06  -2.6533738683143059e-06  -8.4067480670436342e-07  -2.0979676941534569e-06  -3.5840032371783855e-07  -8.3482794214392814e-06  0.0000000000000000e+00  -1.3498145300604294e-05  -1.1901275516600487e-06  -2.0306055509067237e-05  -7.6726864593923952e-06  -3.0015491728903828e-05  -1.5399923769338750e-05  -6.6172414418882155e-06  -2.6399549630398085e-05  -1.7780254908759254e-05  -1.1052976983474683e-05  -8.9186058535855518e-06  -1.0702167885094637e-06  -2.6573448195725206e-06  -2.4199834042206119e-06  -5.3430701813282891e-07  -6.6569243427992619e-07  -3.1898827578672476e-06  -4.4637745886934981e-06  -4.4637745886934820e-06  -3.1898827578672128e-06  -7.1590236638191138e-07  -1.0221378208347720e-06  -7.2214273799594049e-06  -1.6636574445344748e-05  -2.4753475109350823e-05  -3.2283655401919201e-06  -8.0243438549086881e-06  -8.8740978535110218e-06  -2.5866680979956351e-06  -7.8171393864939456e-07  -1.9740858841437401e-06  -2.4405182421157111e-07  -7.7881491052600422e-06  -2.8692491068455609e-05  -1.2607231860677472e-05  0.0000000000000000e+00  -1.8951195364980732e-05  -6.6172414418882511e-06  -2.8769080546745209e-05  -1.4407530593768681e-05  -5.4606069283103050e-06  -2.5521586949651061e-05  -1.6623663455288951e-05  -1.4886766158752932e-06  -8.6943922662217835e-06  -7.2876150564867300e-07  -2.2918038367040023e-06  -2.1966697684352831e-06  -4.9210399066924760e-07  -6.1311173604318726e-07  -2.8955235836903130e-06  -3.9674806642166692e-06  -3.9674806642166548e-06  -2.8955235836902812e-06  -6.6569243427991635e-07  -9.5879079182790121e-07  -6.7369035400871753e-06  -1.5654209959755131e-05  -2.3930255483672588e-05  -2.1983476218227452e-06  -7.5039218329007779e-06  -8.2968448395751155e-06  -2.5164841344434342e-06  -7.1996911085960997e-07  -1.8508163735800538e-06  -1.2388503823845540e-07  -7.2741105795583225e-06  -2.7971162369948884e-05  -1.1794803757216602e-05  -3.5048310373733978e-05  -1.7674032486747159e-05  -5.4606069283103347e-06  -2.7443472443014158e-05  -1.3501378006751580e-05  -4.2057347063700997e-06  -2.4572346545763444e-05  -7.1675016687104276e-07  -1.4200820779778189e-06  -8.4584876635424207e-06  -3.6993227682548763e-07  -1.8912170606038803e-06  -1.9524383811878723e-06  -4.4669312911161973e-07  -5.5653440138888008e-07  -2.5735918341784089e-06  -3.4217190563035100e-06  -3.4217190563034973e-06  -2.5735918341783809e-06  -6.1311173604317815e-07  -8.9897841013985215e-07  -6.2922500137182193e-06  -1.4676700918481982e-05  -2.3040202469913356e-05  -1.1159202766492404e-06  -6.9776330211557001e-06  -7.7432629590473763e-06  -2.4413312513522503e-06  -6.5353108507861458e-07  -1.7304222391533857e-06  0.0000000000000000e+00  -6.8053564606666227e-06  -2.7212221923818060e-05  -1.1052976983474861e-05  -3.4167196494620867e-05  -1.6488187966552956e-05  -4.2057347063701226e-06  -2.6053329353111044e-05  -1.2664629608646200e-05  -2.8638847660406057e-06  -1.8611912756432274e-06  -6.6844679136012573e-07  -1.3481481311387176e-06  -8.2058813681933639e-06  0.0000000000000000e+00  -1.4566068082696086e-06  -1.6838634338972742e-06  -3.9702863963556682e-07  -4.9465747712140885e-07  -2.2195718057504441e-06  -2.8236332238544884e-06  -2.8236332238544778e-06  -2.2195718057504204e-06  -5.5653440138887182e-07  -8.4067480670438322e-07  -5.8867683979567692e-06  -1.3721993185968346e-05  -2.2083444331247094e-05  0.0000000000000000e+00  -6.4264943910630301e-06  -7.2214273799592812e-06  -2.3601405583276743e-06  -5.8086982037165309e-07  -1.6149650484044011e-06  -1.6554970602699783e-05  -6.3773378406628786e-06  -2.6399549630398509e-05  -1.0367968328758778e-05  -3.3240139298795277e-05  -1.5399923769338831e-05  -2.8638847660406210e-06  -2.4619105955638055e-05  -1.1874570227030776e-05  -2.4366136750028808e-07  -1.7306563144987924e-06  -6.2359715304639125e-07  -1.2739332173082229e-06  -7.9329805912946765e-06  -1.2138570564473090e-05  -9.9187284495049860e-07  -1.3895391930635205e-06  -3.4241388354881907e-07  -4.2661302198016417e-07  -1.8316105414622159e-06  -2.1747495110949467e-06  -2.1747495110949387e-06  -1.8316105414621962e-06  -4.9465747712140144e-07  -7.8171393864941298e-07  -5.5165237971723605e-06  -1.2806434688810025e-05  -2.1065893814947866e-05  -2.3684199814844736e-05  -5.8334639490693548e-06  -6.7369035400870601e-06  -2.2723583690289352e-06  -5.0096610464255519e-07  -1.5061289897947082e-06  -1.6138778945789554e-05  -5.9821020936389074e-06  -2.5521586949651468e-05  -9.7211818928700224e-06  -3.2247447841509555e-05  -1.4407530593768755e-05  -1.4537587452896841e-06  -2.3165385092774119e-05  -4.3667423351248628e-06  0.0000000000000000e+00  -1.5939578742910399e-06  -5.8243808471688803e-07  -1.1987093932086225e-06  -7.6379242644538361e-06  -1.1833407123414130e-05  -5.0349226325738760e-07  -1.0702167885094580e-06  -2.8256300473189015e-07  -3.5204488818947255e-07  -1.4106981373890287e-06  -1.4808903627101474e-06  -1.4808903627101419e-06  -1.4106981373890135e-06  -4.2661302198015781e-07  -7.1996911085962691e-07  -5.1746370321261631e-06  -1.1943380793154747e-05  -1.9998805574555126e-05  -2.3088779466473611e-05  -5.1848844433051306e-06  -6.2922500137181117e-06  -2.1779973335139983e-06  -4.1340171820588292e-07  -1.4050748126796131e-06  -1.5700886092745895e-05  -5.6089197719361006e-06  -2.4572346545763834e-05  -9.0907107629595925e-06  -3.1175003191863663e-05  -1.3501378006751653e-05  0.0000000000000000e+00  -4.7898695625981317e-07  -4.1263552451338458e-06  -5.8743717015692466e-06  -1.4468690440222943e-06  -5.4490493915574224e-07  -1.1238573711178951e-06  -7.3207549074538143e-06  -1.1512331754335430e-05  0.0000000000000000e+00  -7.2876150564866908e-07  -2.1762874554767768e-07  -2.7114337726498759e-07  -9.6061144775278050e-07  -7.5172623603199585e-07  -7.5172623603199310e-07  -9.6061144775276991e-07  -3.5204488818946726e-07  -6.5353108507862993e-07  -4.8518269176562701e-06  -1.1142036070224345e-05  -1.8897880833314130e-05  -2.2462312523228961e-05  -4.4716583156660622e-06  -5.8867683979566684e-06  -2.0776406012048244e-06  -3.1840012964813652e-07  -1.3123361432667949e-06  -1.5231991081326677e-05  -5.2451510424585492e-06  -2.3551965211247037e-05  -8.4531322444335370e-06  -3.0015491728903990e-05  -1.2664629608646268e-05  0.0000000000000000e+00  -4.4910624516454924e-07  -3.8827002270252231e-06  -5.7266901048780414e-06  -1.2860024272624113e-06  -5.1063348527398345e-07  -1.0507513421534733e-06  -6.9834326209462062e-06  -1.1168524729844949e-05  -8.9186058535855077e-06  -3.6993227682548562e-07  -1.4819376221769585e-07  -1.8463441985198422e-07  -4.8762342310534893e-07  0.0000000000000000e+00  0.0000000000000000e+00  -4.8762342310534363e-07  -2.7114337726498351e-07  -5.8086982037166686e-07  -4.5371597472838942e-06  -1.0406632097156438e-05  -1.7781989635607422e-05  -2.1791492658358555e-05  -3.6900525081331889e-06  -5.5165237971722665e-06  -1.9723981712949663e-06  -2.1681378985306099e-07  -1.2277673199311302e-06  -1.4725424874322990e-05  -4.8772814975685997e-06  -2.2466748883527000e-05  -7.7854491331171390e-06  -2.8769080546745365e-05  -4.6755439294575789e-07  -1.3255566113440022e-06  -4.1997928046425920e-07  -3.6402495005926621e-06  -5.5713080479736597e-06  -1.1091015645025593e-06  -4.7898695625981105e-07  -9.8064313653995806e-07  -6.6296883700329599e-06  -1.0797096124088986e-05  -8.6943922662217395e-06  0.0000000000000000e+00  -7.5225784352770137e-08  -9.3723709041686411e-08  0.0000000000000000e+00  -1.8123182076733162e-05  -1.1755992618357842e-05  0.0000000000000000e+00  -1.8463441985198144e-07  -5.0096610464256705e-07  -4.2189452901947838e-06  -9.7360137987432671e-06  -1.6671613852650724e-05  -2.1066778881810578e-05  -2.8420617168623061e-06  -5.1746370321260741e-06  -1.8638185894663436e-06  -1.1005852848403904e-07  -1.1505476655309637e-06  -1.4177732903494733e-05  -4.4920422287511834e-06  -2.1328700636247936e-05  -7.0670157136540568e-06  -5.0925045656016311e-07  -4.3635824005865957e-07  -1.2922321424794306e-06  -3.9052396344536580e-07  -3.4034541631528797e-06  -5.4049251740808575e-06  -9.1524054857431678e-07  -4.4910624516454728e-07  -9.1455543142887502e-07  -6.2647271764218095e-06  -1.0395512950367738e-05  -8.4584876635423766e-06  -1.8135998470489662e-06  0.0000000000000000e+00  0.0000000000000000e+00  -1.8123182076733233e-05  -1.7667565612166850e-05  -1.1460447179837951e-05  -2.2595617426301047e-06  -9.3723709041685009e-08  -4.1340171820589266e-07  -3.8857056771879152e-06  -9.1236733262697203e-06  -1.5587138618944504e-05  -2.0283228950772514e-05  -1.9352949777695546e-06  -4.8518269176561871e-06  -1.7537629289162349e-06  0.0000000000000000e+00  -1.0792424316803526e-06  -1.3588994095276002e-05  -4.0775210876333861e-06  -2.0154565803973573e-05  -1.8946400940803845e-06  -4.2023803963606218e-07  -4.0695109528065413e-07  -1.2571700586894630e-06  -3.5967785251074545e-07  -3.1763689768732460e-06  -5.2251750396464032e-06  -7.0491412224891694e-07  -4.1997928046425729e-07  -8.5319305996175198e-07  -5.8948045393883794e-06  -9.9638330797649229e-06  -8.2058813681933232e-06  -1.7680059802019688e-06  -2.2595617426301382e-06  -1.1755992618357970e-05  -1.7667565612166914e-05  -1.7188192250759846e-05  -1.1149491318208492e-05  -2.2027564019185467e-06  0.0000000000000000e+00  -3.1840012964814404e-07  -3.5271366635115624e-06  -8.5582333366053070e-06  -1.4547133933360469e-05  -1.9440955780542175e-05  -9.8239008496747207e-07  -4.5371597472838163e-06  -1.6442512305505824e-06  -2.9867137755226937e-06  -1.0119158982928789e-06  -1.2962846844411246e-05  -3.6241718195398775e-06  -1.7666642633683717e-07  -1.7827644704348237e-06  -3.2366543342851750e-07  -3.7964658926667821e-07  -1.2196256318626584e-06  -3.2648714185729688e-07  -2.9623064617280765e-06  -5.0308318244379436e-06  -4.8000954815762624e-07  -3.9052396344536406e-07  -7.9688005198589426e-07  -5.5267102855995239e-06  -9.5047242857491123e-06  -7.9329805912946376e-06  -1.7200347436251850e-06  -2.2027564019185793e-06  -1.1460447179838076e-05  -1.7188192250759907e-05  -1.6674879973090408e-05  -1.0816520247143577e-05  -2.1429890992845425e-06  -2.6533738683143694e-06  -2.1681378985306607e-07  -3.1349805494160665e-06  -8.0243438549087575e-06  -1.3566770474139764e-05  -1.8545164603445301e-05  0.0000000000000000e+00  -4.2189452901947118e-06  -1.5372939945395305e-06  -2.9116278460587847e-06  -9.4628768900703405e-07  -1.2306216674754352e-05  -5.3339150774853345e-07  -1.5236441680936277e-07  -1.6714418043411186e-06  -2.2039918558959414e-07  -3.5458890606149602e-07  -1.1790648721432973e-06  -2.9018746280674550e-07  -2.7635496195976673e-06  -4.8219235347396389e-06  -2.4366136750028760e-07  -3.5967785251074387e-07  -7.4552795848311719e-07  -5.1672021730931164e-06  -9.0232645574036990e-06  -7.6379242644537972e-06  -1.6686672153220400e-06  -2.1429890992845743e-06  -1.1149491318208614e-05  -1.6674879973090472e-05  -1.6120328000527514e-05  -1.0456798159248495e-05  -2.0789903611085782e-06  -2.5866680979956969e-06  -1.1005852848404164e-07  -2.7037366013718743e-06  -7.5039218329008431e-06  -1.2656503932785673e-05  -1.7605763349535910e-05  -1.4320378122195884e-05  -3.8857056771878483e-06  -1.4347227018522283e-06  -2.8326267624703223e-06  -8.7991964380259869e-07  -3.2497064500434017e-08  -5.0008449176350804e-07  -1.2573248193581939e-07  -1.5627158431108576e-06  -1.1187853900580159e-07  -3.3173868837347719e-07  -1.1352111722283591e-06  -2.5026964348980671e-07  -2.5811480049185012e-06  -4.5997412198465238e-06  0.0000000000000000e+00  -3.2648714185729545e-07  -6.9863844581637076e-07  -4.8224362347928420e-06  -8.5265381323692041e-06  -7.3207549074537770e-06  -1.6131728011312810e-06  -2.0789903611086091e-06  -1.0816520247143694e-05  -1.6120328000527575e-05  -1.5520754522114534e-05  -1.0067871901346182e-05  -2.0098499410544278e-06  -2.5164841344434944e-06  0.0000000000000000e+00  -2.2311476689241860e-06  -6.9776330211557593e-06  -1.1821141058472812e-05  -1.6636574445344609e-05  -1.3960364079205935e-05  -3.5271366635115022e-06  -1.3380335727458597e-06  -2.7480325204454368e-06  -1.2740168965788239e-07  -2.2128796622114396e-08  -4.6755439294575858e-07  -9.6838587713390850e-08  -1.4584483544586168e-06  0.0000000000000000e+00  -3.1087419194038968e-07  -1.0880708517579707e-06  -2.0652475222306912e-07  -2.4148151253806565e-06  -4.3667423351248543e-06  -1.3255566113439969e-06  -2.9018746280674423e-07  -6.5534030246394035e-07  -4.4974416145006065e-06  -8.0230589892449438e-06  -6.9834326209461706e-06  -1.5531730525142651e-06  -2.0098499410544575e-06  -1.0456798159248607e-05  -1.5520754522114591e-05  -1.4876245940791718e-05  -9.6497975205658551e-06  -1.9350963305691641e-06  -2.4413312513523083e-06  -1.4320378122196128e-05  -1.7184198220864800e-06  -6.4264943910630852e-06  -1.1059369773783960e-05  -1.5654209959754999e-05  -1.3581578070877434e-05  -3.1349805494160131e-06  -1.2482578081450908e-06  -2.4917106418830156e-07  -1.1899283977088999e-07  -1.1232969983150269e-08  -4.3635824005866020e-07  -6.5941999550568390e-08  -1.3601603012639694e-06  -8.0700023070696477e-07  -2.9160775247114842e-07  -1.0379352370246354e-06  -1.5906442810338256e-07  -2.2629368448668461e-06  -4.1263552451338373e-06  -1.2922321424794251e-06  -2.5026964348980554e-07  -6.1445811560875972e-07  -4.1956844180346575e-06  -7.5220683470587807e-06  -6.6296883700329261e-06  -1.4886766158752805e-06  -1.9350963305691925e-06  -1.0067871901346288e-05  -1.4876245940791774e-05  -1.4190785307450739e-05  -9.2051587087052838e-06  -1.8547403021968912e-06  -2.3601405583277306e-06  -1.3960364079206172e-05  -1.1701537766235423e-06  -5.8334639490694047e-06  -1.0363797658488408e-05  -1.4676700918481860e-05  -1.3175974580283527e-05  -2.7037366013718281e-06  -6.6701737365208588e-08  -2.4088444950956281e-07  -1.1132477050645333e-07  0.0000000000000000e+00  -4.0695109528065476e-07  -3.3473329536600322e-08  -1.2688999371648857e-06  -7.8671225972801923e-07  -2.7341634477026047e-07  -9.8535885477152012e-07  -1.0831453343318685e-07  -2.1226912507497790e-06  -3.8827002270252147e-06  -1.2571700586894580e-06  -2.0652475222306820e-07  -5.7460718938397380e-07  -3.9187581030133423e-06  -7.0327637781832398e-06  -6.2647271764217773e-06  -1.4200820779778066e-06  -1.8547403021969185e-06  -9.6497975205659584e-06  -1.4190785307450793e-05  -1.3471954183713957e-05  -8.7388734090975264e-06  -1.7692784546792467e-06  -2.2723583690289890e-06  -1.3581578070877666e-05  -5.9399082891594874e-07  -5.1848844433051746e-06  -9.7215009177637254e-06  -1.3721993185968233e-05  -1.2737784757884427e-05  -1.3656452767566533e-07  -5.9285666874048056e-08  -2.3192508297041305e-07  -1.0432306899091830e-07  -8.0700023070696615e-07  -3.7964658926667874e-07  0.0000000000000000e+00  -1.1851491712065518e-06  -7.6536642699222857e-07  -2.5568381865121741e-07  -9.3111531816756011e-07  -5.4982379908449785e-08  -1.9902711019770969e-06  -3.6402495005926544e-06  -1.2196256318626533e-06  -1.5906442810338185e-07  -5.3430701813283367e-07  -3.6662277102406684e-06  -6.5635238836315396e-06  -5.8948045393883489e-06  -1.3481481311387059e-06  -1.7692784546792727e-06  -9.2051587087053804e-06  -1.3471954183714008e-05  -1.2730329509259080e-05  -8.2578025816032432e-06  -1.6796560418087899e-06  -2.1779973335140500e-06  -1.3175974580283752e-05  0.0000000000000000e+00  -4.4716583156661012e-06  -9.1150431498856472e-06  -1.2806434688809916e-05  -2.3192508297041305e-07  -1.2740168965788239e-07  -5.1130405735359517e-08  -2.2229425568134951e-07  -9.7857642956632314e-08  -7.86712259728020