<?xml version="1.0"?>
<VTKFile type="UnstructuredGrid"  version="0.1"  >
<UnstructuredGrid>
<Piece  NumberOfPoints="1089" NumberOfCells="2048">
<Points>
<DataArray  type="Float64"  NumberOfComponents="3"  format="ascii">0 0 0  0.03125 0 0  0.0625 0 0  0.09375 0 0  0.125 0 0  0.15625 0 0  0.1875 0 0  0.21875 0 0  0.25 0 0  0.28125 0 0  0.3125 0 0  0.34375 0 0  0.375 0 0  0.40625 0 0  0.4375 0 0  0.46875 0 0  0.5 0 0  0.53125 0 0  0.5625 0 0  0.59375 0 0  0.625 0 0  0.65625 0 0  0.6875 0 0  0.71875 0 0  0.75 0 0  0.78125 0 0  0.8125 0 0  0.84375 0 0  0.875 0 0  0.90625 0 0  0.9375 0 0  0.96875 0 0  1 0 0  0 0.03125 0  0.03125 0.03125 0  0.0625 0.03125 0  0.09375 0.03125 0  0.125 0.03125 0  0.15625 0.03125 0  0.1875 0.03125 0  0.21875 0.03125 0  0.25 0.03125 0  0.28125 0.03125 0  0.3125 0.03125 0  0.34375 0.03125 0  0.375 0.03125 0  0.40625 0.03125 0  0.4375 0.03125 0  0.46875 0.03125 0  0.5 0.03125 0  0.53125 0.03125 0  0.5625 0.03125 0  0.59375 0.03125 0  0.625 0.03125 0  0.65625 0.03125 0  0.6875 0.03125 0  0.71875 0.03125 0  0.75 0.03125 0  0.78125 0.03125 0  0.8125 0.03125 0  0.84375 0.03125 0  0.875 0.03125 0  0.90625 0.03125 0  0.9375 0.03125 0  0.96875 0.03125 0  1 0.03125 0  0 0.0625 0  0.03125 0.0625 0  0.0625 0.0625 0  0.09375 0.0625 0  0.125 0.0625 0  0.15625 0.0625 0  0.1875 0.0625 0  0.21875 0.0625 0  0.25 0.0625 0  0.28125 0.0625 0  0.3125 0.0625 0  0.34375 0.0625 0  0.375 0.0625 0  0.40625 0.0625 0  0.4375 0.0625 0  0.46875 0.0625 0  0.5 0.0625 0  0.53125 0.0625 0  0.5625 0.0625 0  0.59375 0.0625 0  0.625 0.0625 0  0.65625 0.0625 0  0.6875 0.0625 0  0.71875 0.0625 0  0.75 0.0625 0  0.78125 0.0625 0  0.8125 0.0625 0  0.84375 0.0625 0  0.875 0.0625 0  0.90625 0.0625 0  0.9375 0.0625 0  0.96875 0.0625 0  1 0.0625 0  0 0.09375 0  0.03125 0.09375 0  0.0625 0.09375 0  0.09375 0.09375 0  0.125 0.09375 0  0.15625 0.09375 0  0.1875 0.09375 0  0.21875 0.09375 0  0.25 0.09375 0  0.28125 0.09375 0  0.3125 0.09375 0  0.34375 0.09375 0  0.375 0.09375 0  0.40625 0.09375 0  0.4375 0.09375 0  0.46875 0.09375 0  0.5 0.09375 0  0.53125 0.09375 0  0.5625 0.09375 0  0.59375 0.09375 0  0.625 0.09375 0  0.65625 0.09375 0  0.6875 0.09375 0  0.71875 0.09375 0  0.75 0.09375 0  0.78125 0.09375 0  0.8125 0.09375 0  0.84375 0.09375 0  0.875 0.09375 0  0.90625 0.09375 0  0.9375 0.09375 0  0.96875 0.09375 0  1 0.09375 0  0 0.125 0  0.03125 0.125 0  0.0625 0.125 0  0.09375 0.125 0  0.125 0.125 0  0.15625 0.125 0  0.1875 0.125 0  0.21875 0.125 0  0.25 0.125 0  0.28125 0.125 0  0.3125 0.125 0  0.34375 0.125 0  0.375 0.125 0  0.40625 0.125 0  0.4375 0.125 0  0.46875 0.125 0  0.5 0.125 0  0.53125 0.125 0  0.5625 0.125 0  0.59375 0.125 0  0.625 0.125 0  0.65625 0.125 0  0.6875 0.125 0  0.71875 0.125 0  0.75 0.125 0  0.78125 0.125 0  0.8125 0.125 0  0.84375 0.125 0  0.875 0.125 0  0.90625 0.125 0  0.9375 0.125 0  0.96875 0.125 0  1 0.125 0  0 0.15625 0  0.03125 0.15625 0  0.0625 0.15625 0  0.09375 0.15625 0  0.125 0.15625 0  0.15625 0.15625 0  0.1875 0.15625 0  0.21875 0.15625 0  0.25 0.15625 0  0.28125 0.15625 0  0.3125 0.15625 0  0.34375 0.15625 0  0.375 0.15625 0  0.40625 0.15625 0  0.4375 0.15625 0  0.46875 0.15625 0  0.5 0.15625 0  0.53125 0.15625 0  0.5625 0.15625 0  0.59375 0.15625 0  0.625 0.15625 0  0.65625 0.15625 0  0.6875 0.15625 0  0.71875 0.15625 0  0.75 0.15625 0  0.78125 0.15625 0  0.8125 0.15625 0  0.84375 0.15625 0  0.875 0.15625 0  0.90625 0.15625 0  0.9375 0.15625 0  0.96875 0.15625 0  1 0.15625 0  0 0.1875 0  0.03125 0.1875 0  0.0625 0.1875 0  0.09375 0.1875 0  0.125 0.1875 0  0.15625 0.1875 0  0.1875 0.1875 0  0.21875 0.1875 0  0.25 0.1875 0  0.28125 0.1875 0  0.3125 0.1875 0  0.34375 0.1875 0  0.375 0.1875 0  0.40625 0.1875 0  0.4375 0.1875 0  0.46875 0.1875 0  0.5 0.1875 0  0.53125 0.1875 0  0.5625 0.1875 0  0.59375 0.1875 0  0.625 0.1875 0  0.65625 0.1875 0  0.6875 0.1875 0  0.71875 0.1875 0  0.75 0.1875 0  0.78125 0.1875 0  0.8125 0.1875 0  0.84375 0.1875 0  0.875 0.1875 0  0.90625 0.1875 0  0.9375 0.1875 0  0.96875 0.1875 0  1 0.1875 0  0 0.21875 0  0.03125 0.21875 0  0.0625 0.21875 0  0.09375 0.21875 0  0.125 0.21875 0  0.15625 0.21875 0  0.1875 0.21875 0  0.21875 0.21875 0  0.25 0.21875 0  0.28125 0.21875 0  0.3125 0.21875 0  0.34375 0.21875 0  0.375 0.21875 0  0.40625 0.21875 0  0.4375 0.21875 0  0.46875 0.21875 0  0.5 0.21875 0  0.53125 0.21875 0  0.5625 0.21875 0  0.59375 0.21875 0  0.625 0.21875 0  0.65625 0.21875 0  0.6875 0.21875 0  0.71875 0.21875 0  0.75 0.21875 0  0.78125 0.21875 0  0.8125 0.21875 0  0.84375 0.21875 0  0.875 0.21875 0  0.90625 0.21875 0  0.9375 0.21875 0  0.96875 0.21875 0  1 0.21875 0  0 0.25 0  0.03125 0.25 0  0.0625 0.25 0  0.09375 0.25 0  0.125 0.25 0  0.15625 0.25 0  0.1875 0.25 0  0.21875 0.25 0  0.25 0.25 0  0.28125 0.25 0  0.3125 0.25 0  0.34375 0.25 0  0.375 0.25 0  0.40625 0.25 0  0.4375 0.25 0  0.46875 0.25 0  0.5 0.25 0  0.53125 0.25 0  0.5625 0.25 0  0.59375 0.25 0  0.625 0.25 0  0.65625 0.25 0  0.6875 0.25 0  0.71875 0.25 0  0.75 0.25 0  0.78125 0.25 0  0.8125 0.25 0  0.84375 0.25 0  0.875 0.25 0  0.90625 0.25 0  0.9375 0.25 0  0.96875 0.25 0  1 0.25 0  0 0.28125 0  0.03125 0.28125 0  0.0625 0.28125 0  0.09375 0.28125 0  0.125 0.28125 0  0.15625 0.28125 0  0.1875 0.28125 0  0.21875 0.28125 0  0.25 0.28125 0  0.28125 0.28125 0  0.3125 0.28125 0  0.34375 0.28125 0  0.375 0.28125 0  0.40625 0.28125 0  0.4375 0.28125 0  0.46875 0.28125 0  0.5 0.28125 0  0.53125 0.28125 0  0.5625 0.28125 0  0.59375 0.28125 0  0.625 0.28125 0  0.65625 0.28125 0  0.6875 0.28125 0  0.71875 0.28125 0  0.75 0.28125 0  0.78125 0.28125 0  0.8125 0.28125 0  0.84375 0.28125 0  0.875 0.28125 0  0.90625 0.28125 0  0.9375 0.28125 0  0.96875 0.28125 0  1 0.28125 0  0 0.3125 0  0.03125 0.3125 0  0.0625 0.3125 0  0.09375 0.3125 0  0.125 0.3125 0  0.15625 0.3125 0  0.1875 0.3125 0  0.21875 0.3125 0  0.25 0.3125 0  0.28125 0.3125 0  0.3125 0.3125 0  0.34375 0.3125 0  0.375 0.3125 0  0.40625 0.3125 0  0.4375 0.3125 0  0.46875 0.3125 0  0.5 0.3125 0  0.53125 0.3125 0  0.5625 0.3125 0  0.59375 0.3125 0  0.625 0.3125 0  0.65625 0.3125 0  0.6875 0.3125 0  0.71875 0.3125 0  0.75 0.3125 0  0.78125 0.3125 0  0.8125 0.3125 0  0.84375 0.3125 0  0.875 0.3125 0  0.90625 0.3125 0  0.9375 0.3125 0  0.96875 0.3125 0  1 0.3125 0  0 0.34375 0  0.03125 0.34375 0  0.0625 0.34375 0  0.09375 0.34375 0  0.125 0.34375 0  0.15625 0.34375 0  0.1875 0.34375 0  0.21875 0.34375 0  0.25 0.34375 0  0.28125 0.34375 0  0.3125 0.34375 0  0.34375 0.34375 0  0.375 0.34375 0  0.40625 0.34375 0  0.4375 0.34375 0  0.46875 0.34375 0  0.5 0.34375 0  0.53125 0.34375 0  0.5625 0.34375 0  0.59375 0.34375 0  0.625 0.34375 0  0.65625 0.34375 0  0.6875 0.34375 0  0.71875 0.34375 0  0.75 0.34375 0  0.78125 0.34375 0  0.8125 0.34375 0  0.84375 0.34375 0  0.875 0.34375 0  0.90625 0.34375 0  0.9375 0.34375 0  0.96875 0.34375 0  1 0.34375 0  0 0.375 0  0.03125 0.375 0  0.0625 0.375 0  0.09375 0.375 0  0.125 0.375 0  0.15625 0.375 0  0.1875 0.375 0  0.21875 0.375 0  0.25 0.375 0  0.28125 0.375 0  0.3125 0.375 0  0.34375 0.375 0  0.375 0.375 0  0.40625 0.375 0  0.4375 0.375 0  0.46875 0.375 0  0.5 0.375 0  0.53125 0.375 0  0.5625 0.375 0  0.59375 0.375 0  0.625 0.375 0  0.65625 0.375 0  0.6875 0.375 0  0.71875 0.375 0  0.75 0.375 0  0.78125 0.375 0  0.8125 0.375 0  0.84375 0.375 0  0.875 0.375 0  0.90625 0.375 0  0.9375 0.375 0  0.96875 0.375 0  1 0.375 0  0 0.40625 0  0.03125 0.40625 0  0.0625 0.40625 0  0.09375 0.40625 0  0.125 0.40625 0  0.15625 0.40625 0  0.1875 0.40625 0  0.21875 0.40625 0  0.25 0.40625 0  0.28125 0.40625 0  0.3125 0.40625 0  0.34375 0.40625 0  0.375 0.40625 0  0.40625 0.40625 0  0.4375 0.40625 0  0.46875 0.40625 0  0.5 0.40625 0  0.53125 0.40625 0  0.5625 0.40625 0  0.59375 0.40625 0  0.625 0.40625 0  0.65625 0.40625 0  0.6875 0.40625 0  0.71875 0.40625 0  0.75 0.40625 0  0.78125 0.40625 0  0.8125 0.40625 0  0.84375 0.40625 0  0.875 0.40625 0  0.90625 0.40625 0  0.9375 0.40625 0  0.96875 0.40625 0  1 0.40625 0  0 0.4375 0  0.03125 0.4375 0  0.0625 0.4375 0  0.09375 0.4375 0  0.125 0.4375 0  0.15625 0.4375 0  0.1875 0.4375 0  0.21875 0.4375 0  0.25 0.4375 0  0.28125 0.4375 0  0.3125 0.4375 0  0.34375 0.4375 0  0.375 0.4375 0  0.40625 0.4375 0  0.4375 0.4375 0  0.46875 0.4375 0  0.5 0.4375 0  0.53125 0.4375 0  0.5625 0.4375 0  0.59375 0.4375 0  0.625 0.4375 0  0.65625 0.4375 0  0.6875 0.4375 0  0.71875 0.4375 0  0.75 0.4375 0  0.78125 0.4375 0  0.8125 0.4375 0  0.84375 0.4375 0  0.875 0.4375 0  0.90625 0.4375 0  0.9375 0.4375 0  0.96875 0.4375 0  1 0.4375 0  0 0.46875 0  0.03125 0.46875 0  0.0625 0.46875 0  0.09375 0.46875 0  0.125 0.46875 0  0.15625 0.46875 0  0.1875 0.46875 0  0.21875 0.46875 0  0.25 0.46875 0  0.28125 0.46875 0  0.3125 0.46875 0  0.34375 0.46875 0  0.375 0.46875 0  0.40625 0.46875 0  0.4375 0.46875 0  0.46875 0.46875 0  0.5 0.46875 0  0.53125 0.46875 0  0.5625 0.46875 0  0.59375 0.46875 0  0.625 0.46875 0  0.65625 0.46875 0  0.6875 0.46875 0  0.71875 0.46875 0  0.75 0.46875 0  0.78125 0.46875 0  0.8125 0.46875 0  0.84375 0.46875 0  0.875 0.46875 0  0.90625 0.46875 0  0.9375 0.46875 0  0.96875 0.46875 0  1 0.46875 0  0 0.5 0  0.03125 0.5 0  0.0625 0.5 0  0.09375 0.5 0  0.125 0.5 0  0.15625 0.5 0  0.1875 0.5 0  0.21875 0.5 0  0.25 0.5 0  0.28125 0.5 0  0.3125 0.5 0  0.34375 0.5 0  0.375 0.5 0  0.40625 0.5 0  0.4375 0.5 0  0.46875 0.5 0  0.5 0.5 0  0.53125 0.5 0  0.5625 0.5 0  0.59375 0.5 0  0.625 0.5 0  0.65625 0.5 0  0.6875 0.5 0  0.71875 0.5 0  0.75 0.5 0  0.78125 0.5 0  0.8125 0.5 0  0.84375 0.5 0  0.875 0.5 0  0.90625 0.5 0  0.9375 0.5 0  0.96875 0.5 0  1 0.5 0  0 0.53125 0  0.03125 0.53125 0  0.0625 0.53125 0  0.09375 0.53125 0  0.125 0.53125 0  0.15625 0.53125 0  0.1875 0.53125 0  0.21875 0.53125 0  0.25 0.53125 0  0.28125 0.53125 0  0.3125 0.53125 0  0.34375 0.53125 0  0.375 0.53125 0  0.40625 0.53125 0  0.4375 0.53125 0  0.46875 0.53125 0  0.5 0.53125 0  0.53125 0.53125 0  0.5625 0.53125 0  0.59375 0.53125 0  0.625 0.53125 0  0.65625 0.53125 0  0.6875 0.53125 0  0.71875 0.53125 0  0.75 0.53125 0  0.78125 0.531
[...]
<PointData  Scalars="phi"> 
<DataArray  type="Float64"  Name="phi"  format="ascii">0.0000000000000000e+00  0.0000000000000000e+00  0.0000000000000000e+00  0.0000000000000000e+00  0.0000000000000000e+00  0.0000000000000000e+00  0.0000000000000000e+00  0.0000000000000000e+00  0.0000000000000000e+00  0.0000000000000000e+00  0.0000000000000000e+00  0.0000000000000000e+00  0.0000000000000000e+00  0.0000000000000000e+00  0.0000000000000000e+00  0.0000000000000000e+00  0.0000000000000000e+00  0.0000000000000000e+00  0.0000000000000000e+00  0.0000000000000000e+00  0.0000000000000000e+00  0.0000000000000000e+00  0.0000000000000000e+00  0.0000000000000000e+00  0.0000000000000000e+00  0.0000000000000000e+00  0.0000000000000000e+00  0.0000000000000000e+00  0.0000000000000000e+00  0.0000000000000000e+00  0.0000000000000000e+00  0.0000000000000000e+00  0.0000000000000000e+00  0.0000000000000000e+00  -3.2386379914943948e-18  2.5326076302573910e-07  9.9792390542565566e-07  2.4473139614250517e-06  4.7798198491982428e-06  8.1300237394856937e-06  1.2581527090733082e-05  1.8161805271571848e-05  2.4839323922092183e-05  3.2523054150458843e-05  4.1064426515306375e-05  5.0261666746162417e-05  5.9866362056539953e-05  6.9592018911950802e-05  7.9124294427452833e-05  8.8132517131106033e-05  9.6282061165891915e-05  1.0324710309997059e-04  1.0872327373780043e-04  1.1243971936214999e-04  1.1417010768603961e-04  1.1374215277875535e-04  1.1104528907529985e-04  1.0603619555770073e-04  9.8741955435388882e-05  8.9260732786890625e-05  7.7759956420098039e-05  6.4472130031865906e-05  4.9688564346294417e-05  3.3751645730373736e-05  1.7047046127041891e-05  0.0000000000000000e+00  0.0000000000000000e+00  -2.5326076303853391e-07  -1.2643310448522111e-17  1.2354967032117704e-06  3.8799938762817964e-06  8.2908901716345892e-06  1.4738440214019758e-05  2.3391404709322824e-05  3.4306756440452872e-05  4.7423895787087746e-05  6.2563645227640526e-05  7.9432101423991826e-05  9.7629231386922653e-05  1.1666191230236346e-04  1.3596093957724583e-04  1.5490137103552190e-04  1.7282544287536172e-04  1.8906719003898060e-04  2.0297783401398224e-04  2.1395096749971527e-04  2.2144656920357691e-04  2.2501292325859026e-04  2.2430559499029873e-04  2.1910272537173771e-04  2.0931604682143917e-04  1.9499718870667017e-04  1.7633902773501865e-04  1.5367204336761149e-04  1.2745586209912264e-04  9.8266424904949995e-05  6.6779506291686410e-05  3.3751645730373817e-05  0.0000000000000000e+00  0.0000000000000000e+00  -9.9792390544448140e-07  -1.2354967032489854e-06  -2.7388462551229890e-17  3.3489306265904833e-06  9.3486315277245540e-06  1.8406776796560194e-05  3.0779898744305131e-05  4.6557968854963808e-05  6.5655702377267778e-05  8.7810982824365039e-05  1.1259052184281091e-04  1.3940258549697800e-04  1.6751634050789991e-04  1.9608711378269107e-04  2.2418662552229482e-04  2.5083705919025357e-04  2.7504767822273887e-04  2.9585259548417530e-04  3.1234825117797398e-04  3.2372916023861679e-04  3.2932055109708601e-04  3.2860663199350641e-04  3.2125338462447075e-04  3.0712499204221637e-04  2.8629325114382440e-04  2.5903959156823285e-04  2.2584961346427208e-04  1.8740035659214562e-04  1.4454080894861358e-04  9.8266424904950374e-05  4.9688564346294715e-05  0.0000000000000000e+00  0.0000000000000000e+00  -2.4473139614494996e-06  -3.8799938763301323e-06  -3.3489306266616290e-06  -4.6197842833769339e-17  6.8852108836863317e-06  1.7854067528452389e-05  3.3254389463689072e-05  5.3213966546597838e-05  7.7628955828058002e-05  1.0616167763587206e-04  1.3824796197352594e-04  1.7311382274712287e-04  2.0980087213563975e-04  2.4719954462104827e-04  2.8408889294486003e-04  3.1918145836326621e-04  3.5117151504842492e-04  3.7878485116381799e-04  4.0082818238103615e-04  4.1623630007193903e-04  4.2411513598678089e-04  4.2377907502339033e-04  4.1478106215395573e-04  3.9693432070430083e-04  3.7032481679294838e-04  3.3531395670214226e-04  2.9253137616987786e-04  2.4285805619359550e-04  1.8740035659214665e-04  1.2745586209912386e-04  6.4472130031866651e-05  0.0000000000000000e+00  0.0000000000000000e+00  -4.7798198492277924e-06  -8.2908901716930175e-06  -9.3486315278105481e-06  -6.8852108837979876e-06  -6.7446751101163293e-17  1.1996632560568543e-05  2.9547980091343746e-05  5.2825550911652014e-05  8.1714578462800783e-05  1.1581112566467865e-04  1.5443096973050233e-04  1.9662999440122551e-04  2.4123536716850699e-04  2.8688635691481783e-04  3.3208326881352228e-04  3.7524265291227424e-04  4.1475669294828150e-04  4.4905451229099072e-04  4.7666305108297661e-04  4.9626517593540629e-04  5.0675278075970132e-04  5.0727282085834811e-04  4.9726448530017372e-04  4.7648604480717818e-04  4.4503030100068685e-04  4.0332799247145320e-04  3.5213896592277785e-04  2.9253137616988003e-04  2.2584961346427501e-04  1.5367204336761407e-04  7.7759956420099503e-05  0.0000000000000000e+00  0.0000000000000000e+00  -8.1300237395197309e-06  -1.4738440214087056e-05  -1.8406776796659236e-05  -1.7854067528580945e-05  -1.1996632560723789e-05  -8.9287713158573252e-17  1.8679149084443082e-05  4.4262714423617518e-05  7.6633841464235635e-05  1.1533326955026846e-04  1.5956958448135915e-04  2.0824305578330055e-04  2.5998220957643408e-04  3.1319179035872198e-04  3.6611031858805590e-04  4.1687507291391008e-04  4.6359203089209409e-04  5.0440810144607596e-04  5.3758288401435411e-04  5.6155719711760985e-04  5.7501573278133616e-04  5.7694140856166646e-04  5.6665929759931646e-04  5.4386840724529703e-04  5.0866003312992857e-04  4.6152191997620004e-04  4.0332799247145700e-04  3.3531395670214779e-04  2.5903959156823848e-04  1.7633902773502317e-04  8.9260732786893145e-05  0.0000000000000000e+00  0.0000000000000000e+00  -1.2581527090770905e-05  -2.3391404709397600e-05  -3.0779898744415171e-05  -3.3254389463831869e-05  -2.9547980091516097e-05  -1.8679149084641213e-05  -1.0982140323598017e-16  2.6768838827063577e-05  6.1518098328906381e-05  1.0374539857156305e-04  1.5256668026313660e-04  2.0674317625043537e-04  2.6472295669071211e-04  3.2469551316750085e-04  3.8465733684245248e-04  4.4248601352513052e-04  4.9602002101590279e-04  5.4314118430306849e-04  5.8185663109866211e-04  6.1037709821294478e-04  6.2718856816451380e-04  6.3111446030081027e-04  6.2136595215947087e-04  5.9757845125523921e-04  5.5983275764612392e-04  5.0866003312993431e-04  4.4503030100069595e-04  3.7032481679295868e-04  2.8629325114383388e-04  1.9499718870667740e-04  9.8741955435392758e-05  0.0000000000000000e+00  0.0000000000000000e+00  -1.8161805271612709e-05  -3.4306756440533651e-05  -4.6557968855082636e-05  -5.3213966546751971e-05  -5.2825550911837942e-05  -4.4262714423831079e-05  -2.6768838827300113e-05  -1.2721927013494024e-16  3.5952224100800780e-05  8.0555408517894971e-05  1.3284868941459418e-04  1.9147252673801815e-04  2.5471474861238683e-04  3.2057117063634844e-04  3.8681851403467630e-04  4.5109686418023129e-04  5.1099853400214819e-04  5.6415993981781684e-04  6.0835297013799093e-04  6.4157233596221798e-04  6.6211553377346207e-04  6.6865232442600325e-04  6.6028102196673310e-04  6.3656938108607852e-04  5.9757845125524745e-04  5.4386840724531069e-04  4.7648604480719450e-04  3.9693432070431731e-04  3.0712499204223068e-04  2.0931604682144974e-04  1.0603619555770631e-04  0.0000000000000000e+00  0.0000000000000000e+00  -2.4839323922135284e-05  -4.7423895787172957e-05  -6.5655702377393084e-05  -7.7628955828220469e-05  -8.1714578462996617e-05  -7.6633841464460390e-05  -6.1518098329155002e-05  -3.5952224101067832e-05  -1.3991374854878737e-16  4.5789619421623780e-05  1.0039567986501124e-04  1.6235741170828562e-04  2.2982425768985155e-04  3.0062188254308526e-04  3.7233168028216160e-04  4.4238076661670558e-04  5.0813903092329800e-04  5.6701954028925495e-04  6.1657844829097704e-04  6.5461056883356166e-04  6.7923693034163538e-04  6.8898092196233596e-04  6.8283006987781376e-04  6.6028102196674426e-04  6.2136595215949006e-04  5.6665929759934031e-04  4.9726448530019898e-04  4.1478106215397980e-04  3.2125338462449108e-04  2.1910272537175235e-04  1.1104528907530749e-04  0.0000000000000000e+00  0.0000000000000000e+00  -3.2523054150503404e-05  -6.2563645227728577e-05  -8.7810982824494465e-05  -1.0616167763603977e-04  -1.1581112566488069e-04  -1.1533326955050005e-04  -1.0374539857181889e-04  -8.0555408518169302e-05  -4.5789619421910660e-05  -1.4669909827547225e-16  5.5749556248640320e-05  1.1991744762492526e-04  1.9053782368945004e-04  2.6529129087223284e-04  3.4159019653659257e-04  4.1667525469153200e-04  4.8771983122996535e-04  5.5193790224689196e-04  6.0669154743630237e-04  6.4959384768242270e-04  6.7860322155481416e-04  6.9210555320049468e-04  6.8898092196235028e-04  6.6865232442602819e-04  6.3111446030084247e-04  5.7694140856170213e-04  5.0727282085838389e-04  4.2377907502342313e-04  3.2860663199353352e-04  2.2430559499031800e-04  1.1374215277876534e-04  0.0000000000000000e+00  0.0000000000000000e+00  -4.1064426515351600e-05  -7.9432101424081178e-05  -1.1259052184294218e-04  -1.3824796197369591e-04  -1.5443096973070686e-04  -1.5956958448159328e-04  -1.5256668026339482e-04  -1.3284868941487051e-04  -1.0039567986529953e-04  -5.5749556248934349e-05  -1.4683223809801075e-16  6.5251375840787667e-05  1.3794733831585756e-04  2.1564970082316420e-04  2.9562951944056283e-04  3.7496939006537037e-04  4.5067394366863370e-04  5.1978431298514770e-04  5.7949218199281147e-04  6.2724903587439837e-04  6.6086640363566024e-04  6.7860322155483140e-04  6.7923693034166661e-04  6.6211553377350317e-04  6.2718856816456085e-04  5.7501573278138539e-04  5.0675278075974892e-04  4.2411513598682345e-04  3.2932055109712065e-04  2.2501292325861471e-04  1.1417010768605221e-04  0.0000000000000000e+00  0.0000000000000000e+00  -5.0261666746207560e-05  -9.7629231387011802e-05  -1.3940258549710886e-04  -1.7311382274729219e-04  -1.9662999440142904e-04  -2.0824305578353317e-04  -2.0674317625069141e-04  -1.9147252673829153e-04  -1.6235741170857000e-04  -1.1991744762521432e-04  -6.5251375841075183e-05  -1.4007444440087519e-16  7.3712377956585749e-05  1.5335581731717982e-04  2.3608894022317424e-04  3.1886588735545907e-04  3.9855194243527709e-04  4.7204339963096190e-04  5.3638707698992739e-04  5.8889488436835629e-04  6.2724903587441864e-04  6.4959384768245977e-04  6.5461056883361207e-04  6.4157233596227718e-04  6.1037709821300874e-04  5.6155719711767403e-04  4.9626517593546679e-04  4.1623630007199227e-04  3.2372916023865967e-04  2.2144656920360697e-04  1.1243971936216547e-04  0.0000000000000000e+00  0.0000000000000000e+00  -5.9866362056584284e-05  -1.1666191230245100e-04  -1.6751634050802834e-04  -2.0980087213580569e-04  -2.4123536716870615e-04  -2.5998220957666133e-04  -2.6472295669096170e-04  -2.5471474861265262e-04  -2.2982425769012710e-04  -1.9053782368972901e-04  -1.3794733831613365e-04  -7.3712377956853208e-05  -1.2673008413069168e-16  8.0595519405423724e-05  1.6514995286335188e-04  2.5051968271714881e-04  3.3346132743233012e-04  4.1075585109932335e-04  4.7933239532794200e-04  5.3638707698995037e-04  5.7949218199285419e-04  6.0669154743636135e-04  6.1657844829104806e-04  6.0835297013806943e-04  5.8185663109874386e-04  5.3758288401443456e-04  4.7666305108305082e-04  4.0082818238110066e-04  3.1234825117802559e-04  2.1395096749975118e-04  1.0872327373781885e-04  0.0000000000000000e+00  0.0000000000000000e+00  -6.9592018911993682e-05  -1.3596093957733043e-04  -1.9608711378281510e-04  -2.4719954462120840e-04  -2.8688635691500979e-04  -3.1319179035894050e-04  -3.2469551316774035e-04  -3.2057117063660258e-04  -3.0062188254334764e-04  -2.6529129087249728e-04  -2.1564970082342435e-04  -1.5335581731742997e-04  -8.0595519405658603e-05  -1.0759807026640807e-16  8.5453605779428827e-05  1.7255530419174451e-04  2.5798470846950805e-04  3.3843819209399223e-04  4.1075585109934845e-04  4.7204339963100950e-04  5.1978431298521448e-04  5.5193790224697392e-04  5.6701954028934775e-04  5.6415993981791582e-04  5.4314118430316889e-04  5.0440810144617267e-04  4.4905451229107924e-04  3.7878485116389421e-04  2.9585259548423580e-04  2.0297783401402420e-04  1.0324710309999203e-04  0.0000000000000000e+00  0.0000000000000000e+00  -7.9124294427493694e-05  -1.5490137103560251e-04  -2.2418662552241289e-04  -2.8408889294501225e-04  -3.3208326881370448e-04  -3.6611031858826276e-04  -3.8465733684267848e-04  -3.8681851403491526e-04  -3.7233168028240706e-04  -3.4159019653683858e-04  -2.9562951944080325e-04  -2.3608894022340322e-04  -1.6514995286356449e-04  -8.5453605779620785e-05  -8.3983249854399048e-17  8.7966215891987126e-05  1.7507996414213974e-04  2.5798470846953451e-04  3.3346132743238135e-04  3.9855194243535016e-04  4.5067394366872515e-04  4.8771983123007090e-04  5.0813903092341304e-04  5.1099853400226767e-04  4.9602002101602162e-04  4.6359203089220717e-04  4.1475669294838418e-04  3.5117151504851269e-04  2.7504767822280815e-04  1.8906719003902850e-04  9.6282061165916310e-05  0.0000000000000000e+00  0.0000000000000000e+00  -8.8132517131144455e-05  -1.7282544287543743e-04  -2.5083705919036432e-04  -3.1918145836340873e-04  -3.7524265291244440e-04  -4.1687507291410285e-04  -4.4248601352534037e-04  -4.5109686418045214e-04  -4.4238076661693142e-04  -4.1667525469175665e-04  -3.7496939006558796e-04  -3.1886588735566404e-04  -2.5051968271733627e-04  -1.7255530419191061e-04  -8.7966215892128696e-05  -5.7420468931484002e-17  8.7966215892014394e-05  1.7255530419179802e-04  2.5051968271722644e-04  3.1886588735555784e-04  3.7496939006548648e-04  4.1667525469166091e-04  4.4238076661684241e-04  4.5109686418037082e-04  4.4248601352526740e-04  4.1687507291403905e-04  3.7524265291239019e-04  3.1918145836336482e-04  2.5083705919033109e-04  1.7282544287541515e-04  8.8132517131133260e-05  0.0000000000000000e+00  0.0000000000000000e+00  -9.6282061165927491e-05  -1.8906719003905067e-04  -2.7504767822284122e-04  -3.5117151504855643e-04  -4.1475669294843817e-04  -4.6359203089227087e-04  -4.9602002101609437e-04  -5.1099853400234899e-04  -5.0813903092350194e-04  -4.8771983123016647e-04  -4.5067394366882631e-04  -3.9855194243545598e-04  -3.3346132743249069e-04  -2.5798470846964672e-04  -1.7507996414225358e-04  -8.7966215892101455e-05  -2.9748365358403484e-17  8.5453605779508746e-05  1.6514995286345515e-04  2.3608894022329760e-04  2.9562951944070231e-04  3.4159019653674355e-04  3.7233168028231881e-04  3.8681851403483448e-04  3.8465733684260595e-04  3.6611031858819939e-04  3.3208326881365075e-04  2.8408889294496867e-04  2.2418662552237985e-04  1.5490137103558039e-04  7.9124294427482581e-05  0.0000000000000000e+00  0.0000000000000000e+00  -1.0324710310000306e-04  -2.0297783401404621e-04  -2.9585259548426860e-04  -3.7878485116393752e-04  -4.4905451229113264e-04  -5.0440810144623555e-04  -5.4314118430324066e-04  -5.6415993981799627e-04  -5.6701954028943568e-04  -5.5193790224706825e-04  -5.1978431298531445e-04  -4.7204339963111391e-04  -4.1075585109945649e-04  -3.3843819209410287e-04  -2.5798470846962032e-04  -1.7255530419185729e-04  -8.5453605779540933e-05  -2.7942193034142106e-18  8.0595519405550915e-05  1.5335581731732597e-04  2.1564970082332512e-04  2.6529129087240382e-04  3.0062188254326090e-04  3.2057117063652321e-04  3.2469551316766912e-04  3.1319179035887822e-04  2.8688635691495698e-04  2.4719954462116558e-04  1.9608711378278263e-04  1.3596093957730864e-04  6.9592018911982759e-05  0.0000000000000000e+00  0.0000000000000000e+00  -1.0872327373782964e-04  -2.1395096749977270e-04  -3.1234825117805768e-04  -4.0082818238114306e-04  -4.7666305108310313e-04  -5.3758288401449582e-04  -5.8185663109881422e-04  -6.0835297013814814e-04  -6.1657844829113404e-04  -6.0669154743645350e-04  -5.7949218199295177e-04  -5.3638707699005250e-04  -4.7933239532804782e-04  -4.1075585109943166e-04  -3.3346132743243984e-04  -2.5051968271725897e-04  -1.6514995286346127e-04  -8.0595519405531399e-05  2.1724112539505542e-17  7.3712377956751862e-05  1.3794733831603705e-04  1.9053782368963802e-04  2.2982425769004270e-04  2.5471474861257537e-04  2.6472295669089242e-04  2.5998220957660061e-04  2.4123536716865471e-04  2.0980087213576397e-04  1.6751634050799668e-04  1.1666191230242975e-04  5.9866362056573631e-05  0.0000000000000000e+00  0.0000000000000000e+00  -1.1243971936217590e-04  -2.2144656920362779e-04  -3.2372916023869062e-04  -4.1623630007203314e-04  -4.9626517593551721e-04  -5.6155719711773345e-04  -6.1037709821307662e-04  -6.4157233596235297e-04  -6.5461056883369491e-04  -6.4959384768254890e-04  -6.2724903587451297e-04  -5.8889488436845495e-04  -5.3638707699002963e-04  -4.7204339963106653e-04  -3.9855194243538302e-04  -3.1886588735556543e-04  -2.3608894022327979e-04  -1.5335581731728372e-04  -7.3712377956687040e-05  4.2338018296962150e-17  6.5251375840981983e-05  1.1991744762512658e-04  1.6235741170848858e-04  1.9147252673821713e-04  2.0674317625062467e-04  2.0824305578347470e-04  1.9662999440137944e-04  1.7311382274725197e-04  1.3940258549707840e-04  9.7629231386991337e-05  5.0261666746197287e-05  0.0000000000000000e+00  0.0000000000000000e+00  -1.1417010768606219e-04  -2.2501292325863466e-04  -3.2932055109715025e-04  -4.2411513598686253e-04  -5.0675278075979716e-04  -5.7501573278144220e-04  -6.2718856816462590e-04  -6.6211553377357537e-04  -6.7923693034174564e-04  -6.7860322155491640e-04  -6.6086640363575034e-04  -6.2724903587449291e-04  -5.7949218199290938e-04  -5.1978431298524766e-04  -4.5067394366873486e-04  -3.7496939006547185e-04  -2.9562951944066349e-04  -2.1564970082326329e-04  -1.3794733831595419e-04  -6.5251375840880908e-05  5.7929052831655142e-17  5.5749556248850676e-05  1.0039567986522188e-04  1.3284868941479963e-04  1.5256668026333116e-04  1.5956958448153755e-04  1.5443096973065954e-04  1.3824796197365753e-04  1.1259052184291312e-04  7.9432101424061676e-05  4.1064426515341815e-05  0.0000000000000000e+00  0.0000000000000000e+00  -1.1374215277877476e-04  -2.2430559499033681e-04  -3.2860663199356149e-04  -4.2377907502346004e-04  -5.0727282085842942e-04  -5.7694140856175580e-04  -6.3111446030090384e-04  -6.6865232442609639e-04  -6.8898092196242487e-04  -6.9210555320057491e-04  -6.7860322155489927e-04  -6.4959384768251192e-04  -6.0669154743639463e-04  -5.5193790224698606e-04  -4.8771983123006076e-04  -4.1667525469162768e-04  -3.4159019653668749e-04  -2.6529129087232630e-04  -1.9053782368954117e-04  -1.1991744762501316e-04  -5.5749556248724095e-05  6.7857864296281860e-17  4.5789619421837476e-05  8.0555408518102461e-05  1.0374539857175892e-04  1.1533326955044756e-04  1.1581112566483617e-04  1.0616167763600367e-04  8.7810982824467103e-05  6.2563645227710213e-05  3.2523054150494188e-05  0.0000000000000000e+00  0.0000000000000000e+00  -1.1104528907531625e-04  -2.1910272537176980e-04  -3.2125338462451705e-04  -4.1478106215401417e-04  -4.9726448530024148e-04  -5.6665929759939040e-04  -6.2136595215954720e-04  -6.6028102196680769e-04  -6.8283006987788304e-04  -6.8898092196241077e-04  -6.7923693034171464e-04  -6.5461056883364481e-04  -6.1657844829106270e-04  -5.6701954028934233e-04  -5.0813903092338669e-04  -4.4238076661679449e-04  -3.7233168028224985e-04  -3.0062188254317216e-04  -2.2982425768993628e-04  -1.6235741170836731e-04  -1.0039567986508909e-04  -4.5789619421697045e-05  7.1908180146376372e-17  3.5952224101005708e-05  6.1518098329099301e-05  7.6633841464411628e-05  8.1714578462955254e-05  7.7628955828186900e-05  6.5655702377367633e-05  4.7423895787155861e-05  2.4839323922126722e-05  0.0000000000000000e+00  0.0000000000000000e+00  -1.0603619555771434e-04  -2.0931604682146573e-04  -3.0712499204225453e-04  -3.9693432070434876e-04  -4.7648604480723331e-04  -5.4386840724535645e-04  -5.9757845125529971e-04  -6.3656938108613674e-04  -6.6028102196679663e-04  -6.6865232442607156e-04  -6.6211553377353450e-04  -6.4157233596229398e-04  -6.0835297013806964e-04  -5.6415993981789707e-04  -5.1099853400222929e-04  -4.5109686418031260e-04  -3.8681851403475712e-04  -3.2057117063642791e-04  -2.5471474861246430e-04  -1.9147252673809285e-04  -1.3284868941466538e-04  -8.0555408517961948e-05  -3.5952224100862945e-05  7.0412431983943614e-17  2.6768838827249