<?xml version="1.0"?>
<VTKFile type="UnstructuredGrid"  version="0.1"  >
<UnstructuredGrid>
<Piece  NumberOfPoints="1089" NumberOfCells="2048">
<Points>
<DataArray  type="Float64"  NumberOfComponents="3"  format="ascii">0 0 0  0.03125 0 0  0.0625 0 0  0.09375 0 0  0.125 0 0  0.15625 0 0  0.1875 0 0  0.21875 0 0  0.25 0 0  0.28125 0 0  0.3125 0 0  0.34375 0 0  0.375 0 0  0.40625 0 0  0.4375 0 0  0.46875 0 0  0.5 0 0  0.53125 0 0  0.5625 0 0  0.59375 0 0  0.625 0 0  0.65625 0 0  0.6875 0 0  0.71875 0 0  0.75 0 0  0.78125 0 0  0.8125 0 0  0.84375 0 0  0.875 0 0  0.90625 0 0  0.9375 0 0  0.96875 0 0  1 0 0  0 0.03125 0  0.03125 0.03125 0  0.0625 0.03125 0  0.09375 0.03125 0  0.125 0.03125 0  0.15625 0.03125 0  0.1875 0.03125 0  0.21875 0.03125 0  0.25 0.03125 0  0.28125 0.03125 0  0.3125 0.03125 0  0.34375 0.03125 0  0.375 0.03125 0  0.40625 0.03125 0  0.4375 0.03125 0  0.46875 0.03125 0  0.5 0.03125 0  0.53125 0.03125 0  0.5625 0.03125 0  0.59375 0.03125 0  0.625 0.03125 0  0.65625 0.03125 0  0.6875 0.03125 0  0.71875 0.03125 0  0.75 0.03125 0  0.78125 0.03125 0  0.8125 0.03125 0  0.84375 0.03125 0  0.875 0.03125 0  0.90625 0.03125 0  0.9375 0.03125 0  0.96875 0.03125 0  1 0.03125 0  0 0.0625 0  0.03125 0.0625 0  0.0625 0.0625 0  0.09375 0.0625 0  0.125 0.0625 0  0.15625 0.0625 0  0.1875 0.0625 0  0.21875 0.0625 0  0.25 0.0625 0  0.28125 0.0625 0  0.3125 0.0625 0  0.34375 0.0625 0  0.375 0.0625 0  0.40625 0.0625 0  0.4375 0.0625 0  0.46875 0.0625 0  0.5 0.0625 0  0.53125 0.0625 0  0.5625 0.0625 0  0.59375 0.0625 0  0.625 0.0625 0  0.65625 0.0625 0  0.6875 0.0625 0  0.71875 0.0625 0  0.75 0.0625 0  0.78125 0.0625 0  0.8125 0.0625 0  0.84375 0.0625 0  0.875 0.0625 0  0.90625 0.0625 0  0.9375 0.0625 0  0.96875 0.0625 0  1 0.0625 0  0 0.09375 0  0.03125 0.09375 0  0.0625 0.09375 0  0.09375 0.09375 0  0.125 0.09375 0  0.15625 0.09375 0  0.1875 0.09375 0  0.21875 0.09375 0  0.25 0.09375 0  0.28125 0.09375 0  0.3125 0.09375 0  0.34375 0.09375 0  0.375 0.09375 0  0.40625 0.09375 0  0.4375 0.09375 0  0.46875 0.09375 0  0.5 0.09375 0  0.53125 0.09375 0  0.5625 0.09375 0  0.59375 0.09375 0  0.625 0.09375 0  0.65625 0.09375 0  0.6875 0.09375 0  0.71875 0.09375 0  0.75 0.09375 0  0.78125 0.09375 0  0.8125 0.09375 0  0.84375 0.09375 0  0.875 0.09375 0  0.90625 0.09375 0  0.9375 0.09375 0  0.96875 0.09375 0  1 0.09375 0  0 0.125 0  0.03125 0.125 0  0.0625 0.125 0  0.09375 0.125 0  0.125 0.125 0  0.15625 0.125 0  0.1875 0.125 0  0.21875 0.125 0  0.25 0.125 0  0.28125 0.125 0  0.3125 0.125 0  0.34375 0.125 0  0.375 0.125 0  0.40625 0.125 0  0.4375 0.125 0  0.46875 0.125 0  0.5 0.125 0  0.53125 0.125 0  0.5625 0.125 0  0.59375 0.125 0  0.625 0.125 0  0.65625 0.125 0  0.6875 0.125 0  0.71875 0.125 0  0.75 0.125 0  0.78125 0.125 0  0.8125 0.125 0  0.84375 0.125 0  0.875 0.125 0  0.90625 0.125 0  0.9375 0.125 0  0.96875 0.125 0  1 0.125 0  0 0.15625 0  0.03125 0.15625 0  0.0625 0.15625 0  0.09375 0.15625 0  0.125 0.15625 0  0.15625 0.15625 0  0.1875 0.15625 0  0.21875 0.15625 0  0.25 0.15625 0  0.28125 0.15625 0  0.3125 0.15625 0  0.34375 0.15625 0  0.375 0.15625 0  0.40625 0.15625 0  0.4375 0.15625 0  0.46875 0.15625 0  0.5 0.15625 0  0.53125 0.15625 0  0.5625 0.15625 0  0.59375 0.15625 0  0.625 0.15625 0  0.65625 0.15625 0  0.6875 0.15625 0  0.71875 0.15625 0  0.75 0.15625 0  0.78125 0.15625 0  0.8125 0.15625 0  0.84375 0.15625 0  0.875 0.15625 0  0.90625 0.15625 0  0.9375 0.15625 0  0.96875 0.15625 0  1 0.15625 0  0 0.1875 0  0.03125 0.1875 0  0.0625 0.1875 0  0.09375 0.1875 0  0.125 0.1875 0  0.15625 0.1875 0  0.1875 0.1875 0  0.21875 0.1875 0  0.25 0.1875 0  0.28125 0.1875 0  0.3125 0.1875 0  0.34375 0.1875 0  0.375 0.1875 0  0.40625 0.1875 0  0.4375 0.1875 0  0.46875 0.1875 0  0.5 0.1875 0  0.53125 0.1875 0  0.5625 0.1875 0  0.59375 0.1875 0  0.625 0.1875 0  0.65625 0.1875 0  0.6875 0.1875 0  0.71875 0.1875 0  0.75 0.1875 0  0.78125 0.1875 0  0.8125 0.1875 0  0.84375 0.1875 0  0.875 0.1875 0  0.90625 0.1875 0  0.9375 0.1875 0  0.96875 0.1875 0  1 0.1875 0  0 0.21875 0  0.03125 0.21875 0  0.0625 0.21875 0  0.09375 0.21875 0  0.125 0.21875 0  0.15625 0.21875 0  0.1875 0.21875 0  0.21875 0.21875 0  0.25 0.21875 0  0.28125 0.21875 0  0.3125 0.21875 0  0.34375 0.21875 0  0.375 0.21875 0  0.40625 0.21875 0  0.4375 0.21875 0  0.46875 0.21875 0  0.5 0.21875 0  0.53125 0.21875 0  0.5625 0.21875 0  0.59375 0.21875 0  0.625 0.21875 0  0.65625 0.21875 0  0.6875 0.21875 0  0.71875 0.21875 0  0.75 0.21875 0  0.78125 0.21875 0  0.8125 0.21875 0  0.84375 0.21875 0  0.875 0.21875 0  0.90625 0.21875 0  0.9375 0.21875 0  0.96875 0.21875 0  1 0.21875 0  0 0.25 0  0.03125 0.25 0  0.0625 0.25 0  0.09375 0.25 0  0.125 0.25 0  0.15625 0.25 0  0.1875 0.25 0  0.21875 0.25 0  0.25 0.25 0  0.28125 0.25 0  0.3125 0.25 0  0.34375 0.25 0  0.375 0.25 0  0.40625 0.25 0  0.4375 0.25 0  0.46875 0.25 0  0.5 0.25 0  0.53125 0.25 0  0.5625 0.25 0  0.59375 0.25 0  0.625 0.25 0  0.65625 0.25 0  0.6875 0.25 0  0.71875 0.25 0  0.75 0.25 0  0.78125 0.25 0  0.8125 0.25 0  0.84375 0.25 0  0.875 0.25 0  0.90625 0.25 0  0.9375 0.25 0  0.96875 0.25 0  1 0.25 0  0 0.28125 0  0.03125 0.28125 0  0.0625 0.28125 0  0.09375 0.28125 0  0.125 0.28125 0  0.15625 0.28125 0  0.1875 0.28125 0  0.21875 0.28125 0  0.25 0.28125 0  0.28125 0.28125 0  0.3125 0.28125 0  0.34375 0.28125 0  0.375 0.28125 0  0.40625 0.28125 0  0.4375 0.28125 0  0.46875 0.28125 0  0.5 0.28125 0  0.53125 0.28125 0  0.5625 0.28125 0  0.59375 0.28125 0  0.625 0.28125 0  0.65625 0.28125 0  0.6875 0.28125 0  0.71875 0.28125 0  0.75 0.28125 0  0.78125 0.28125 0  0.8125 0.28125 0  0.84375 0.28125 0  0.875 0.28125 0  0.90625 0.28125 0  0.9375 0.28125 0  0.96875 0.28125 0  1 0.28125 0  0 0.3125 0  0.03125 0.3125 0  0.0625 0.3125 0  0.09375 0.3125 0  0.125 0.3125 0  0.15625 0.3125 0  0.1875 0.3125 0  0.21875 0.3125 0  0.25 0.3125 0  0.28125 0.3125 0  0.3125 0.3125 0  0.34375 0.3125 0  0.375 0.3125 0  0.40625 0.3125 0  0.4375 0.3125 0  0.46875 0.3125 0  0.5 0.3125 0  0.53125 0.3125 0  0.5625 0.3125 0  0.59375 0.3125 0  0.625 0.3125 0  0.65625 0.3125 0  0.6875 0.3125 0  0.71875 0.3125 0  0.75 0.3125 0  0.78125 0.3125 0  0.8125 0.3125 0  0.84375 0.3125 0  0.875 0.3125 0  0.90625 0.3125 0  0.9375 0.3125 0  0.96875 0.3125 0  1 0.3125 0  0 0.34375 0  0.03125 0.34375 0  0.0625 0.34375 0  0.09375 0.34375 0  0.125 0.34375 0  0.15625 0.34375 0  0.1875 0.34375 0  0.21875 0.34375 0  0.25 0.34375 0  0.28125 0.34375 0  0.3125 0.34375 0  0.34375 0.34375 0  0.375 0.34375 0  0.40625 0.34375 0  0.4375 0.34375 0  0.46875 0.34375 0  0.5 0.34375 0  0.53125 0.34375 0  0.5625 0.34375 0  0.59375 0.34375 0  0.625 0.34375 0  0.65625 0.34375 0  0.6875 0.34375 0  0.71875 0.34375 0  0.75 0.34375 0  0.78125 0.34375 0  0.8125 0.34375 0  0.84375 0.34375 0  0.875 0.34375 0  0.90625 0.34375 0  0.9375 0.34375 0  0.96875 0.34375 0  1 0.34375 0  0 0.375 0  0.03125 0.375 0  0.0625 0.375 0  0.09375 0.375 0  0.125 0.375 0  0.15625 0.375 0  0.1875 0.375 0  0.21875 0.375 0  0.25 0.375 0  0.28125 0.375 0  0.3125 0.375 0  0.34375 0.375 0  0.375 0.375 0  0.40625 0.375 0  0.4375 0.375 0  0.46875 0.375 0  0.5 0.375 0  0.53125 0.375 0  0.5625 0.375 0  0.59375 0.375 0  0.625 0.375 0  0.65625 0.375 0  0.6875 0.375 0  0.71875 0.375 0  0.75 0.375 0  0.78125 0.375 0  0.8125 0.375 0  0.84375 0.375 0  0.875 0.375 0  0.90625 0.375 0  0.9375 0.375 0  0.96875 0.375 0  1 0.375 0  0 0.40625 0  0.03125 0.40625 0  0.0625 0.40625 0  0.09375 0.40625 0  0.125 0.40625 0  0.15625 0.40625 0  0.1875 0.40625 0  0.21875 0.40625 0  0.25 0.40625 0  0.28125 0.40625 0  0.3125 0.40625 0  0.34375 0.40625 0  0.375 0.40625 0  0.40625 0.40625 0  0.4375 0.40625 0  0.46875 0.40625 0  0.5 0.40625 0  0.53125 0.40625 0  0.5625 0.40625 0  0.59375 0.40625 0  0.625 0.40625 0  0.65625 0.40625 0  0.6875 0.40625 0  0.71875 0.40625 0  0.75 0.40625 0  0.78125 0.40625 0  0.8125 0.40625 0  0.84375 0.40625 0  0.875 0.40625 0  0.90625 0.40625 0  0.9375 0.40625 0  0.96875 0.40625 0  1 0.40625 0  0 0.4375 0  0.03125 0.4375 0  0.0625 0.4375 0  0.09375 0.4375 0  0.125 0.4375 0  0.15625 0.4375 0  0.1875 0.4375 0  0.21875 0.4375 0  0.25 0.4375 0  0.28125 0.4375 0  0.3125 0.4375 0  0.34375 0.4375 0  0.375 0.4375 0  0.40625 0.4375 0  0.4375 0.4375 0  0.46875 0.4375 0  0.5 0.4375 0  0.53125 0.4375 0  0.5625 0.4375 0  0.59375 0.4375 0  0.625 0.4375 0  0.65625 0.4375 0  0.6875 0.4375 0  0.71875 0.4375 0  0.75 0.4375 0  0.78125 0.4375 0  0.8125 0.4375 0  0.84375 0.4375 0  0.875 0.4375 0  0.90625 0.4375 0  0.9375 0.4375 0  0.96875 0.4375 0  1 0.4375 0  0 0.46875 0  0.03125 0.46875 0  0.0625 0.46875 0  0.09375 0.46875 0  0.125 0.46875 0  0.15625 0.46875 0  0.1875 0.46875 0  0.21875 0.46875 0  0.25 0.46875 0  0.28125 0.46875 0  0.3125 0.46875 0  0.34375 0.46875 0  0.375 0.46875 0  0.40625 0.46875 0  0.4375 0.46875 0  0.46875 0.46875 0  0.5 0.46875 0  0.53125 0.46875 0  0.5625 0.46875 0  0.59375 0.46875 0  0.625 0.46875 0  0.65625 0.46875 0  0.6875 0.46875 0  0.71875 0.46875 0  0.75 0.46875 0  0.78125 0.46875 0  0.8125 0.46875 0  0.84375 0.46875 0  0.875 0.46875 0  0.90625 0.46875 0  0.9375 0.46875 0  0.96875 0.46875 0  1 0.46875 0  0 0.5 0  0.03125 0.5 0  0.0625 0.5 0  0.09375 0.5 0  0.125 0.5 0  0.15625 0.5 0  0.1875 0.5 0  0.21875 0.5 0  0.25 0.5 0  0.28125 0.5 0  0.3125 0.5 0  0.34375 0.5 0  0.375 0.5 0  0.40625 0.5 0  0.4375 0.5 0  0.46875 0.5 0  0.5 0.5 0  0.53125 0.5 0  0.5625 0.5 0  0.59375 0.5 0  0.625 0.5 0  0.65625 0.5 0  0.6875 0.5 0  0.71875 0.5 0  0.75 0.5 0  0.78125 0.5 0  0.8125 0.5 0  0.84375 0.5 0  0.875 0.5 0  0.90625 0.5 0  0.9375 0.5 0  0.96875 0.5 0  1 0.5 0  0 0.53125 0  0.03125 0.53125 0  0.0625 0.53125 0  0.09375 0.53125 0  0.125 0.53125 0  0.15625 0.53125 0  0.1875 0.53125 0  0.21875 0.53125 0  0.25 0.53125 0  0.28125 0.53125 0  0.3125 0.53125 0  0.34375 0.53125 0  0.375 0.53125 0  0.40625 0.53125 0  0.4375 0.53125 0  0.46875 0.53125 0  0.5 0.53125 0  0.53125 0.53125 0  0.5625 0.53125 0  0.59375 0.53125 0  0.625 0.53125 0  0.65625 0.53125 0  0.6875 0.53125 0  0.71875 0.53125 0  0.75 0.53125 0  0.78125 0.531
[...]
<PointData  Scalars="phi"> 
<DataArray  type="Float64"  Name="phi"  format="ascii">0.0000000000000000e+00  0.0000000000000000e+00  0.0000000000000000e+00  0.0000000000000000e+00  0.0000000000000000e+00  0.0000000000000000e+00  0.0000000000000000e+00  0.0000000000000000e+00  0.0000000000000000e+00  0.0000000000000000e+00  0.0000000000000000e+00  0.0000000000000000e+00  0.0000000000000000e+00  0.0000000000000000e+00  0.0000000000000000e+00  0.0000000000000000e+00  0.0000000000000000e+00  0.0000000000000000e+00  0.0000000000000000e+00  0.0000000000000000e+00  0.0000000000000000e+00  0.0000000000000000e+00  0.0000000000000000e+00  0.0000000000000000e+00  0.0000000000000000e+00  0.0000000000000000e+00  0.0000000000000000e+00  0.0000000000000000e+00  0.0000000000000000e+00  0.0000000000000000e+00  0.0000000000000000e+00  0.0000000000000000e+00  0.0000000000000000e+00  0.0000000000000000e+00  1.0852528279832463e-19  2.1376274531171622e-08  8.4242639343687942e-08  2.0662157629295641e-07  4.0358748313167075e-07  6.8651605204847390e-07  1.0624773706068896e-06  1.5338005790297056e-06  2.0978297094642894e-06  2.7468822584830622e-06  3.4684138559320959e-06  4.2453842078120149e-06  5.0568115455466067e-06  5.8784953816814784e-06  6.6838807241393069e-06  7.4450312869940297e-06  8.1336748689715464e-06  8.7222811195825708e-06  9.1851304922927164e-06  9.4993333526811370e-06  9.6457599666918377e-06  9.6098453823693245e-06  9.3822379291998892e-06  8.9592660446340211e-06  8.3432052351882205e-06  7.5423350654531874e-06  6.5707851850285202e-06  5.4481801163147829e-06  4.1991070169279612e-06  2.8524563728681024e-06  1.4407486783706576e-06  0.0000000000000000e+00  0.0000000000000000e+00  -2.1376274530735023e-08  4.3924940929420137e-19  1.0431333832888325e-07  3.2762064155466773e-07  7.0012407454147508e-07  1.2446671936871398e-06  1.9755211675522648e-06  2.8975139284009375e-06  4.0055404873987628e-06  5.2844771352749839e-06  6.7095061517120615e-06  8.2468414304897901e-06  9.8548296420815809e-06  1.1485386770824106e-05  1.3085716630369495e-05  1.4600246779561559e-05  1.5972708558474178e-05  1.7148282076607381e-05  1.8075724142151237e-05  1.8709397438521214e-05  1.9011122729962262e-05  1.8951782394313137e-05  1.8512612913978890e-05  1.7686135793236200e-05  1.6476690341518253e-05  1.4900547496507316e-05  1.2985601084203943e-05  1.0770651634974662e-05  8.3043186813851092e-06  5.6436416384171774e-06  2.8524563728681088e-06  0.0000000000000000e+00  0.0000000000000000e+00  -8.4242639343024279e-08  -1.0431333832754769e-07  1.0150480957887709e-18  2.8280356271091319e-07  7.8950587582542625e-07  1.5545654253094183e-06  2.5996741758398466e-06  3.9324533902500168e-06  5.5457177047426022e-06  7.4173409030145139e-06  9.5107331303840362e-06  1.1775915272529738e-05  1.4151152784040008e-05  1.6565089270040383e-05  1.8939300433293209e-05  2.1191172351246564e-05  2.3236995081819470e-05  2.4995153814156413e-05  2.6389295523961809e-05  2.7351349533940280e-05  2.7824285512854200e-05  2.7764502091014964e-05  2.7143753079438017e-05  2.5950535760977704e-05  2.4190886260461399e-05  2.1888549895534389e-05  1.9084518900128217e-05  1.5835955158850379e-05  1.2214540444508936e-05  8.3043186813851414e-06  4.1991070169279866e-06  0.0000000000000000e+00  0.0000000000000000e+00  -2.0662157629205424e-07  -3.2762064155285244e-07  -2.8280356270815498e-07  1.8723327963705246e-18  5.8150159383596447e-07  1.5079663739208558e-06  2.8088034687274501e-06  4.4948337305433656e-06  6.5573079694467450e-06  8.9677194714964118e-06  1.1678423562788065e-05  1.4624045426775672e-05  1.7723626531841791e-05  2.0883431064296884e-05  2.4000307800681516e-05  2.6965480890699179e-05  2.9668625904955419e-05  3.2002075892321706e-05  3.3864996542824348e-05  3.5167370089038568e-05  3.5833634292112371e-05  3.5805835503107699e-05  3.5046172896739463e-05  3.3538833865909390e-05  3.1291047380034001e-05  2.8333311821970203e-05  2.4718785237136303e-05  2.0521857638456501e-05  1.5835955158850471e-05  1.0770651634974762e-05  5.4481801163148456e-06  0.0000000000000000e+00  0.0000000000000000e+00  -4.0358748313051566e-07  -7.0012407453915188e-07  -7.8950587582189857e-07  -5.8150159383117926e-07  3.0537983335747704e-18  1.0132881629974420e-06  2.4958424323965949e-06  4.4621810102751567e-06  6.9026350356497326e-06  9.7831025913601078e-06  1.3045798184787736e-05  1.6610974646108702e-05  2.0379556420894002e-05  2.4236587566609919e-05  2.8055365772732837e-05  3.1702106646785155e-05  3.5040961389914913e-05  3.7939196643683342e-05  4.0272338282982413e-05  4.1929081536013155e-05  4.2815778016725056e-05  4.2860325751921558e-05  4.2015310486712597e-05  4.0260274608070262e-05  3.7603022849128906e-05  3.4079910225366410e-05  2.9755095906928120e-05  2.4718785237136483e-05  1.9084518900128461e-05  1.2985601084204158e-05  6.5707851850286439e-06  0.0000000000000000e+00  0.0000000000000000e+00  -6.8651605204705004e-07  -1.2446671936842769e-06  -1.5545654253050747e-06  -1.5079663739149708e-06  -1.0132881629899398e-06  4.6004789913324653e-18  1.5778322510345223e-06  3.7389873243226487e-06  6.4736224631093943e-06  9.7429635481774941e-06  1.3480170144566347e-05  1.7592348477978790e-05  2.1963640618781126e-05  2.6459276109306319e-05  3.0930434546604785e-05  3.5219735686498676e-05  3.9167148701405626e-05  4.2616095269812655e-05  4.5419512858877497e-05  4.7445645210863799e-05  4.8583336641470768e-05  4.8746624940775091e-05  4.7878453739226711e-05  4.5953358155152033e-05  4.2979016090845822e-05  3.8996600164371716e-05  3.4079910225366729e-05  2.8333311821970671e-05  2.1888549895534867e-05  1.4900547496507701e-05  7.5423350654533975e-06  0.0000000000000000e+00  0.0000000000000000e+00  -1.0624773706051803e-06  -1.9755211675488289e-06  -2.5996741758346386e-06  -2.8088034687204036e-06  -2.4958424323876248e-06  -1.5778322510235392e-06  6.5433761708603629e-18  2.2612912565648781e-06  5.1968415143396945e-06  8.7642348914759253e-06  1.2888804347313539e-05  1.7465909527541152e-05  2.2364446115329734e-05  2.7431457038165091e-05  3.2497672769498759e-05  3.7383771439951583e-05  4.1907120947237824e-05  4.5888745831823620e-05  4.9160252120967397e-05  5.1570444012285180e-05  5.2991377150205633e-05  5.3323613931028910e-05  5.2500475960881143e-05  5.0491126339219903e-05  4.7302358389780915e-05  4.2979016090846303e-05  3.7603022849129678e-05  3.1291047380034868e-05  2.4190886260462198e-05  1.6476690341518863e-05  8.3432052351885441e-06  0.0000000000000000e+00  0.0000000000000000e+00  -1.5338005790276945e-06  -2.8975139283968980e-06  -3.9324533902439003e-06  -4.4948337305350986e-06  -4.4621810102646493e-06  -3.7389873243098064e-06  -2.2612912565496053e-06  8.8927430293858216e-18  3.0371823874095498e-06  6.8053022560236377e-06  1.1223203705458969e-05  1.6176042354542327e-05  2.1519174924897587e-05  2.7083280448897481e-05  3.2680520812456583e-05  3.8111507574688133e-05  4.3172810145560622e-05  4.7664718682121779e-05  5.1398964326205394e-05  5.4206100071751832e-05  5.5942257598747211e-05  5.6495018384996074e-05  5.5788170425630519e-05  5.3785163682595473e-05  5.0491126339220608e-05  4.5953358155153198e-05  4.0260274608071645e-05  3.3538833865910779e-05  2.5950535760978914e-05  1.7686135793237088e-05  8.9592660446344920e-06  0.0000000000000000e+00  0.0000000000000000e+00  -2.0978297094619626e-06  -4.0055404873940914e-06  -5.5457177047355371e-06  -6.5573079694372091e-06  -6.9026350356376336e-06  -6.4736224630946339e-06  -5.1968415143221728e-06  -3.0371823873891829e-06  1.1637416031776093e-17  3.8683555212110721e-06  8.4816509981131356e-06  1.3716488717118739e-05  1.9416532682268932e-05  2.5398085365031365e-05  3.1456805065919479e-05  3.7375309365855091e-05  4.2931375238425834e-05  4.7906422567211648e-05  5.2093955988317592e-05  5.5307640618679446e-05  5.7388700317530353e-05  5.8212352164346368e-05  5.7693026863849366e-05  5.5788170425631454e-05  5.2500475960882769e-05  4.7878453739228730e-05  4.2015310486714725e-05  3.5046172896741482e-05  2.7143753079439724e-05  1.8512612913980123e-05  9.3822379292005329e-06  0.0000000000000000e+00  0.0000000000000000e+00  -2.7468822584804122e-06  -5.2844771352696662e-06  -7.4173409030064730e-06  -8.9677194714855749e-06  -9.7831025913463790e-06  -9.7429635481607737e-06  -8.7642348914561149e-06  -6.8053022560006510e-06  -3.8683555211848565e-06  1.4731826236105292e-17  4.7099023825132723e-06  1.0131123456674779e-05  1.6097585154827372e-05  2.2413333153526373e-05  2.8859742431242172e-05  3.5203681268719872e-05  4.1206322586519981e-05  4.6632265794233374e-05  5.1258619513803257e-05  5.4883696134459413e-05  5.7334983142859661e-05  5.8476083018311403e-05  5.8212352164347574e-05  5.6495018384998182e-05  5.3323613931031620e-05  4.8746624940778106e-05  4.2860325751924573e-05  3.5805835503110463e-05  2.7764502091017251e-05  1.8951782394314760e-05  9.6098453823701682e-06  0.0000000000000000e+00  0.0000000000000000e+00  -3.4684138559291173e-06  -6.7095061517060865e-06  -9.5107331303750102e-06  -1.1678423562775916e-05  -1.3045798184772368e-05  -1.3480170144547654e-05  -1.2888804347291432e-05  -1.1223203705433368e-05  -8.4816509980839977e-06  -4.7099023824805861e-06  1.8097953171012882e-17  5.5127561636869440e-06  1.1654565766148253e-05  1.8219436528396455e-05  2.4976804953675221e-05  3.1680179612943857e-05  3.8076477253732959e-05  4.3915694609203227e-05  4.8960545093218052e-05  5.2995690097588574e-05  5.5836209345648156e-05  5.7334983142861118e-05  5.7388700317532975e-05  5.5942257598750667e-05  5.2991377150209603e-05  4.8583336641474915e-05  4.2815778016729067e-05  3.5833634292115963e-05  2.7824285512857124e-05  1.9011122729964326e-05  9.6457599666929050e-06  0.0000000000000000e+00  0.0000000000000000e+00  -4.2453842078087098e-06  -8.2468414304831613e-06  -1.1775915272519733e-05  -1.4624045426762216e-05  -1.6610974646091704e-05  -1.7592348477958157e-05  -1.7465909527516791e-05  -1.6176042354514165e-05  -1.3716488717086742e-05  -1.0131123456638953e-05  -5.5127561636473410e-06  2.1627054551388620e-17  6.2276762506643141e-06  1.2956526548009051e-05  1.9946486850044371e-05  2.6940212106040037e-05  3.3672845820011401e-05  3.9882148227834008e-05  4.5318594680377331e-05  4.9755056273010761e-05  5.2995690097590268e-05  5.4883696134462543e-05  5.5307640618683702e-05  5.4206100071756819e-05  5.1570444012290560e-05  4.7445645210869220e-05  4.1929081536018257e-05  3.5167370089043067e-05  2.7351349533943899e-05  1.8709397438523749e-05  9.4993333526824397e-06  0.0000000000000000e+00  0.0000000000000000e+00  -5.0568115455429823e-06  -9.8548296420743168e-06  -1.4151152784029051e-05  -1.7723626531827070e-05  -2.0379556420875435e-05  -2.1963640618758612e-05  -2.2364446115303205e-05  -2.1519174924866965e-05  -1.9416532682234197e-05  -1.6097585154788551e-05  -1.1654565766105417e-05  -6.2276762506176053e-06  2.5181245065218605e-17  6.8092794561480268e-06  1.3953096869378092e-05  2.1165846981932532e-05  2.8173492288366660e-05  3.4704049680918774e-05  4.0498053727326019e-05  4.5318594680379256e-05  4.8960545093221637e-05  5.1258619513808230e-05  5.2093955988323596e-05  5.1398964326212034e-05  4.9160252120974268e-05  4.5419512858884260e-05  4.0272338282988667e-05  3.3864996542829790e-05  2.6389295523966160e-05  1.8075724142154266e-05  9.1851304922942682e-06  0.0000000000000000e+00  0.0000000000000000e+00  -5.8784953816775533e-06  -1.1485386770816237e-05  -1.6565089270028518e-05  -2.0883431064280963e-05  -2.4236587566589861e-05  -2.6459276109282046e-05  -2.7431457038136526e-05  -2.7083280448864569e-05  -2.5398085364994085e-05  -2.2413333153484784e-05  -1.8219436528350637e-05  -1.2956526547959168e-05  -6.8092794560943215e-06  2.8596783950706803e-17  7.2197748912310820e-06  1.4578831048560936e-05  2.1796624781949927e-05  2.8594026737766936e-05  3.4704049680920888e-05  3.9882148227838012e-05  4.3915694609208844e-05  4.6632265794240279e-05  4.7906422567219475e-05  4.7664718682130134e-05  4.5888745831832077e-05  4.2616095269820800e-05  3.7939196643690789e-05  3.2002075892328130e-05  2.4995153814161508e-05  1.7148282076610915e-05  8.7222811195843783e-06  0.0000000000000000e+00  0.0000000000000000e+00  -6.6838807241351048e-06  -1.3085716630361079e-05  -1.8939300433280524e-05  -2.4000307800664501e-05  -2.8055365772711444e-05  -3.0930434546578920e-05  -3.2497672769468367e-05  -3.2680520812421597e-05  -3.1456805065879933e-05  -2.8859742431198106e-05  -2.4976804953626750e-05  -1.9946486849991672e-05  -1.3953096869321433e-05  -7.2197748911708300e-06  3.1699135974030390e-17  7.4320846471558052e-06  1.4792159245288141e-05  2.1796624781952160e-05  2.8173492288370987e-05  3.3672845820017553e-05  3.8076477253740670e-05  4.1206322586528878e-05  4.2931375238435552e-05  4.3172810145570705e-05  4.1907120947247847e-05  3.9167148701415161e-05  3.5040961389923552e-05  2.9668625904962805e-05  2.3236995081825305e-05  1.5972708558478210e-05  8.1336748689736047e-06  0.0000000000000000e+00  0.0000000000000000e+00  -7.4450312869895878e-06  -1.4600246779552660e-05  -2.1191172351233160e-05  -2.6965480890681229e-05  -3.1702106646762590e-05  -3.5219735686471421e-05  -3.7383771439919599e-05  -3.8111507574651378e-05  -3.7375309365813593e-05  -3.5203681268673692e-05  -3.1680179612893123e-05  -2.6940212105984960e-05  -2.1165846981873402e-05  -1.4578831048498138e-05  -7.4320846470898061e-06  3.4314977077943245e-17  7.4320846471581083e-06  1.4578831048565452e-05  2.1165846981939084e-05  2.6940212106048358e-05  3.1680179612953635e-05  3.5203681268730734e-05  3.7375309365866624e-05  3.8111507574699896e-05  3.7383771439963130e-05  3.5219735686509545e-05  3.1702106646794934e-05  2.6965480890707491e-05  2.1191172351253089e-05  1.4600246779566057e-05  7.4450312869963226e-06  0.0000000000000000e+00  0.0000000000000000e+00  -8.1336748689669081e-06  -1.5972708558464888e-05  -2.3236995081805488e-05  -2.9668625904936693e-05  -3.5040961389891392e-05  -3.9167148701377254e-05  -4.1907120947204553e-05  -4.3172810145522458e-05  -4.2931375238382805e-05  -4.1206322586472140e-05  -3.8076477253680483e-05  -3.3672845819954480e-05  -2.8173492288305636e-05  -2.1796624781885183e-05  -1.4792159245220177e-05  -7.4320846470875081e-06  3.6274748969094090e-17  7.2197748912378227e-06  1.3953096869386800e-05  1.9946486850054769e-05  2.4976804953686978e-05  2.8859742431254901e-05  3.1456805065932747e-05  3.2680520812469911e-05  3.2497672769511715e-05  3.0930434546616881e-05  2.8055365772743658e-05  2.4000307800690664e-05  1.8939300433300372e-05  1.3085716630374421e-05  6.6838807241418133e-06  0.0000000000000000e+00  0.0000000000000000e+00  -8.7222811195777816e-06  -1.7148282076597796e-05  -2.4995153814141993e-05  -3.2002075892302414e-05  -3.7939196643659117e-05  -4.2616095269783476e-05  -4.5888745831789454e-05  -4.7664718682082612e-05  -4.7906422567167535e-05  -4.6632265794184402e-05  -4.3915694609149552e-05  -3.9882148227775874e-05  -3.4704049680856507e-05  -2.8594026737700945e-05  -2.1796624781882954e-05  -1.4578831048493636e-05  -7.2197748911640910e-06  3.7434992992807250e-17  6.8092794561587494e-06  1.2956526548021367e-05  1.8219436528410021e-05  2.2413333153540779e-05  2.5398085365046164e-05  2.7083280448912206e-05  2.7431457038179270e-05  2.6459276109319489e-05  2.4236587566621642e-05  2.0883431064306764e-05  1.6565089270048095e-05  1.1485386770829396e-05  5.8784953816841703e-06  0.0000000000000000e+00  0.0000000000000000e+00  -9.1851304922878409e-06  -1.8075724142141479e-05  -2.6389295523947139e-05  -3.3864996542804724e-05  -4.0272338282957808e-05  -4.5419512858847858e-05  -4.9160252120932723e-05  -5.1398964326165698e-05  -5.2093955988272943e-05  -5.1258619513753722e-05  -4.8960545093163822e-05  -4.5318594680318676e-05  -4.0498053727263243e-05  -3.4704049680854413e-05  -2.8173492288301333e-05  -2.1165846981866870e-05  -1.3953096869312725e-05  -6.8092794560835939e-06  3.7695575763171080e-17  6.2276762506783130e-06  1.1654565766163381e-05  1.6097585154843212e-05  1.9416532682285033e-05  2.1519174924913474e-05  2.2364446115344933e-05  2.1963640618795166e-05  2.0379556420906457e-05  1.7723626531852257e-05  1.4151152784048161e-05  9.8548296420871629e-06  5.0568115455494435e-06  0.0000000000000000e+00  0.0000000000000000e+00  -9.4993333526762378e-06  -1.8709397438511416e-05  -2.7351349533925549e-05  -3.5167370089018876e-05  -4.1929081535988455e-05  -4.7445645210834092e-05  -5.1570444012250452e-05  -5.4206100071712109e-05  -5.5307640618634804e-05  -5.4883696134409933e-05  -5.2995690097534459e-05  -4.9755056272952288e-05  -4.5318594680316752e-05  -3.9882148227771890e-05  -3.3672845819948334e-05  -2.6940212105976642e-05  -1.9946486849981257e-05  -1.2956526547946831e-05  -6.2276762506035954e-06  3.7002178045946067e-17  5.5127561637033214e-06  1.0131123456691747e-05  1.3716488717135841e-05  1.6176042354559088e-05  1.7465909527557100e-05  1.7592348477993468e-05  1.6610974646121675e-05  1.4624045426786550e-05  1.1775915272538195e-05  8.2468414304955771e-06  4.2453842078149525e-06  0.0000000000000000e+00  0.0000000000000000e+00  -9.6457599666869859e-06  -1.9011122729952555e-05  -2.7824285512839614e-05  -3.5833634292092876e-05  -4.2815778016700628e-05  -4.8583336641441393e-05  -5.2991377150171331e-05  -5.5942257598707990e-05  -5.7388700317486321e-05  -5.7334983142810920e-05  -5.5836209345594901e-05  -5.2995690097532772e-05  -4.8960545093160258e-05  -4.3915694609143941e-05  -3.8076477253672772e-05  -3.1680179612883331e-05  -2.4976804953614970e-05  -1.8219436528337057e-05  -1.1654565766090285e-05  -5.5127561636309653e-06  3.5355467985313810e-17  4.7099023825309998e-06  8.4816509981308826e-06  1.1223203705476275e-05  1.2888804347329931e-05  1.3480170144581380e-05  1.3045798184800987e-05  1.1678423562799152e-05  9.5107331303926455e-06  6.7095061517179450e-06  3.4684138559350817e-06  0.0000000000000000e+00  0.0000000000000000e+00  -9.6098453823645930e-06  -1.8951782394303670e-05  -2.7764502091000748e-05  -3.5805835503088711e-05  -4.2860325751897766e-05  -4.8746624940746515e-05  -5.3323613930995543e-05  -5.6495018384957951e-05  -5.8212352164303596e-05  -5.8476083018264084e-05  -5.7334983142809463e-05  -5.4883696134406815e-05  -5.1258619513748775e-05  -4.6632265794177490e-05  -4.1206322586463236e-05  -3.5203681268662816e-05  -2.8859742431185363e-05  -2.2413333153470371e-05  -1.6097585154772715e-05  -1.0131123456621996e-05  -4.7099023824628645e-06  3.2811722891583923e-17  3.8683555212290750e-06  6.8053022560411171e-06  8.7642348914924289e-06  9.7429635481925849e-06  9.7831025913733791e-06  8.9677194715074995e-06  7.4173409030231121e-06  5.2844771352808538e-06  2.7468822584860399e-06  0.0000000000000000e+00  0.0000000000000000e+00  -9.3822379291953542e-06  -1.8512612913969816e-05  -2.7143753079424393e-05  -3.5046172896721269e-05  -4.2015310486689829e-05  -4.7878453739199375e-05  -5.2500475960849240e-05  -5.5788170425594063e-05  -5.7693026863808485e-05  -5.8212352164302397e-05  -5.7388700317483705e-05  -5.5307640618630576e-05  -5.2093955988266946e-05  -4.7906422567159695e-05  -4.2931375238373102e-05  -3.7375309365802053e-05  -3.1456805065866665e-05  -2.5398085364979289e-05  -1.9416532682218117e-05  -1.3716488717069657e-05  -8.4816509980662608e-06  -3.8683555211668579e-06  2.9485101365201383e-17  3.0371823874268149e-06  5.1968415143559491e-06  6.4736224631242233e-06  6.9026350356627498e-06  6.5573079694576056e-06  5.5457177047510158e-06  4.0055404874045032e-06  2.0978297094671994e-06  0.0000000000000000e+00  0.0000000000000000e+00  -8.9592660446297605e-06  -1.7686135793227672e-05  -2.5950535760964900e-05  -3.3538833865892300e-05  -4.0260274608048876e-05  -4.5953358155126357e-05  -5.0491126339189952e-05  -5.3785163682561307e-05  -5.5788170425593141e-05  -5.6495018384955864e-05  -5.5942257598704548e-05  -5.4206100071707122e-05  -5.1398964326159078e-05  -4.7664718682074271e-05  -4.3172810145512375e-05  -3.8111507574639615e-05  -3.2680520812408261e-05  -2.7083280448849847e-05  -2.1519174924851095e-05  -1.6176042354497417e-05  -1.1223203705416078e-05  -6.8053022559831818e-06  -3.0371823873719187e-06  2.5544247675364957e-17  2.2612912565805152e-06  3.7389873