<?xml version="1.0"?>
<VTKFile type="UnstructuredGrid"  version="0.1"  >
<UnstructuredGrid>
<Piece  NumberOfPoints="1089" NumberOfCells="2048">
<Points>
<DataArray  type="Float64"  NumberOfComponents="3"  format="ascii">0 0 0  0.03125 0 0  0.0625 0 0  0.09375 0 0  0.125 0 0  0.15625 0 0  0.1875 0 0  0.21875 0 0  0.25 0 0  0.28125 0 0  0.3125 0 0  0.34375 0 0  0.375 0 0  0.40625 0 0  0.4375 0 0  0.46875 0 0  0.5 0 0  0.53125 0 0  0.5625 0 0  0.59375 0 0  0.625 0 0  0.65625 0 0  0.6875 0 0  0.71875 0 0  0.75 0 0  0.78125 0 0  0.8125 0 0  0.84375 0 0  0.875 0 0  0.90625 0 0  0.9375 0 0  0.96875 0 0  1 0 0  0 0.03125 0  0.03125 0.03125 0  0.0625 0.03125 0  0.09375 0.03125 0  0.125 0.03125 0  0.15625 0.03125 0  0.1875 0.03125 0  0.21875 0.03125 0  0.25 0.03125 0  0.28125 0.03125 0  0.3125 0.03125 0  0.34375 0.03125 0  0.375 0.03125 0  0.40625 0.03125 0  0.4375 0.03125 0  0.46875 0.03125 0  0.5 0.03125 0  0.53125 0.03125 0  0.5625 0.03125 0  0.59375 0.03125 0  0.625 0.03125 0  0.65625 0.03125 0  0.6875 0.03125 0  0.71875 0.03125 0  0.75 0.03125 0  0.78125 0.03125 0  0.8125 0.03125 0  0.84375 0.03125 0  0.875 0.03125 0  0.90625 0.03125 0  0.9375 0.03125 0  0.96875 0.03125 0  1 0.03125 0  0 0.0625 0  0.03125 0.0625 0  0.0625 0.0625 0  0.09375 0.0625 0  0.125 0.0625 0  0.15625 0.0625 0  0.1875 0.0625 0  0.21875 0.0625 0  0.25 0.0625 0  0.28125 0.0625 0  0.3125 0.0625 0  0.34375 0.0625 0  0.375 0.0625 0  0.40625 0.0625 0  0.4375 0.0625 0  0.46875 0.0625 0  0.5 0.0625 0  0.53125 0.0625 0  0.5625 0.0625 0  0.59375 0.0625 0  0.625 0.0625 0  0.65625 0.0625 0  0.6875 0.0625 0  0.71875 0.0625 0  0.75 0.0625 0  0.78125 0.0625 0  0.8125 0.0625 0  0.84375 0.0625 0  0.875 0.0625 0  0.90625 0.0625 0  0.9375 0.0625 0  0.96875 0.0625 0  1 0.0625 0  0 0.09375 0  0.03125 0.09375 0  0.0625 0.09375 0  0.09375 0.09375 0  0.125 0.09375 0  0.15625 0.09375 0  0.1875 0.09375 0  0.21875 0.09375 0  0.25 0.09375 0  0.28125 0.09375 0  0.3125 0.09375 0  0.34375 0.09375 0  0.375 0.09375 0  0.40625 0.09375 0  0.4375 0.09375 0  0.46875 0.09375 0  0.5 0.09375 0  0.53125 0.09375 0  0.5625 0.09375 0  0.59375 0.09375 0  0.625 0.09375 0  0.65625 0.09375 0  0.6875 0.09375 0  0.71875 0.09375 0  0.75 0.09375 0  0.78125 0.09375 0  0.8125 0.09375 0  0.84375 0.09375 0  0.875 0.09375 0  0.90625 0.09375 0  0.9375 0.09375 0  0.96875 0.09375 0  1 0.09375 0  0 0.125 0  0.03125 0.125 0  0.0625 0.125 0  0.09375 0.125 0  0.125 0.125 0  0.15625 0.125 0  0.1875 0.125 0  0.21875 0.125 0  0.25 0.125 0  0.28125 0.125 0  0.3125 0.125 0  0.34375 0.125 0  0.375 0.125 0  0.40625 0.125 0  0.4375 0.125 0  0.46875 0.125 0  0.5 0.125 0  0.53125 0.125 0  0.5625 0.125 0  0.59375 0.125 0  0.625 0.125 0  0.65625 0.125 0  0.6875 0.125 0  0.71875 0.125 0  0.75 0.125 0  0.78125 0.125 0  0.8125 0.125 0  0.84375 0.125 0  0.875 0.125 0  0.90625 0.125 0  0.9375 0.125 0  0.96875 0.125 0  1 0.125 0  0 0.15625 0  0.03125 0.15625 0  0.0625 0.15625 0  0.09375 0.15625 0  0.125 0.15625 0  0.15625 0.15625 0  0.1875 0.15625 0  0.21875 0.15625 0  0.25 0.15625 0  0.28125 0.15625 0  0.3125 0.15625 0  0.34375 0.15625 0  0.375 0.15625 0  0.40625 0.15625 0  0.4375 0.15625 0  0.46875 0.15625 0  0.5 0.15625 0  0.53125 0.15625 0  0.5625 0.15625 0  0.59375 0.15625 0  0.625 0.15625 0  0.65625 0.15625 0  0.6875 0.15625 0  0.71875 0.15625 0  0.75 0.15625 0  0.78125 0.15625 0  0.8125 0.15625 0  0.84375 0.15625 0  0.875 0.15625 0  0.90625 0.15625 0  0.9375 0.15625 0  0.96875 0.15625 0  1 0.15625 0  0 0.1875 0  0.03125 0.1875 0  0.0625 0.1875 0  0.09375 0.1875 0  0.125 0.1875 0  0.15625 0.1875 0  0.1875 0.1875 0  0.21875 0.1875 0  0.25 0.1875 0  0.28125 0.1875 0  0.3125 0.1875 0  0.34375 0.1875 0  0.375 0.1875 0  0.40625 0.1875 0  0.4375 0.1875 0  0.46875 0.1875 0  0.5 0.1875 0  0.53125 0.1875 0  0.5625 0.1875 0  0.59375 0.1875 0  0.625 0.1875 0  0.65625 0.1875 0  0.6875 0.1875 0  0.71875 0.1875 0  0.75 0.1875 0  0.78125 0.1875 0  0.8125 0.1875 0  0.84375 0.1875 0  0.875 0.1875 0  0.90625 0.1875 0  0.9375 0.1875 0  0.96875 0.1875 0  1 0.1875 0  0 0.21875 0  0.03125 0.21875 0  0.0625 0.21875 0  0.09375 0.21875 0  0.125 0.21875 0  0.15625 0.21875 0  0.1875 0.21875 0  0.21875 0.21875 0  0.25 0.21875 0  0.28125 0.21875 0  0.3125 0.21875 0  0.34375 0.21875 0  0.375 0.21875 0  0.40625 0.21875 0  0.4375 0.21875 0  0.46875 0.21875 0  0.5 0.21875 0  0.53125 0.21875 0  0.5625 0.21875 0  0.59375 0.21875 0  0.625 0.21875 0  0.65625 0.21875 0  0.6875 0.21875 0  0.71875 0.21875 0  0.75 0.21875 0  0.78125 0.21875 0  0.8125 0.21875 0  0.84375 0.21875 0  0.875 0.21875 0  0.90625 0.21875 0  0.9375 0.21875 0  0.96875 0.21875 0  1 0.21875 0  0 0.25 0  0.03125 0.25 0  0.0625 0.25 0  0.09375 0.25 0  0.125 0.25 0  0.15625 0.25 0  0.1875 0.25 0  0.21875 0.25 0  0.25 0.25 0  0.28125 0.25 0  0.3125 0.25 0  0.34375 0.25 0  0.375 0.25 0  0.40625 0.25 0  0.4375 0.25 0  0.46875 0.25 0  0.5 0.25 0  0.53125 0.25 0  0.5625 0.25 0  0.59375 0.25 0  0.625 0.25 0  0.65625 0.25 0  0.6875 0.25 0  0.71875 0.25 0  0.75 0.25 0  0.78125 0.25 0  0.8125 0.25 0  0.84375 0.25 0  0.875 0.25 0  0.90625 0.25 0  0.9375 0.25 0  0.96875 0.25 0  1 0.25 0  0 0.28125 0  0.03125 0.28125 0  0.0625 0.28125 0  0.09375 0.28125 0  0.125 0.28125 0  0.15625 0.28125 0  0.1875 0.28125 0  0.21875 0.28125 0  0.25 0.28125 0  0.28125 0.28125 0  0.3125 0.28125 0  0.34375 0.28125 0  0.375 0.28125 0  0.40625 0.28125 0  0.4375 0.28125 0  0.46875 0.28125 0  0.5 0.28125 0  0.53125 0.28125 0  0.5625 0.28125 0  0.59375 0.28125 0  0.625 0.28125 0  0.65625 0.28125 0  0.6875 0.28125 0  0.71875 0.28125 0  0.75 0.28125 0  0.78125 0.28125 0  0.8125 0.28125 0  0.84375 0.28125 0  0.875 0.28125 0  0.90625 0.28125 0  0.9375 0.28125 0  0.96875 0.28125 0  1 0.28125 0  0 0.3125 0  0.03125 0.3125 0  0.0625 0.3125 0  0.09375 0.3125 0  0.125 0.3125 0  0.15625 0.3125 0  0.1875 0.3125 0  0.21875 0.3125 0  0.25 0.3125 0  0.28125 0.3125 0  0.3125 0.3125 0  0.34375 0.3125 0  0.375 0.3125 0  0.40625 0.3125 0  0.4375 0.3125 0  0.46875 0.3125 0  0.5 0.3125 0  0.53125 0.3125 0  0.5625 0.3125 0  0.59375 0.3125 0  0.625 0.3125 0  0.65625 0.3125 0  0.6875 0.3125 0  0.71875 0.3125 0  0.75 0.3125 0  0.78125 0.3125 0  0.8125 0.3125 0  0.84375 0.3125 0  0.875 0.3125 0  0.90625 0.3125 0  0.9375 0.3125 0  0.96875 0.3125 0  1 0.3125 0  0 0.34375 0  0.03125 0.34375 0  0.0625 0.34375 0  0.09375 0.34375 0  0.125 0.34375 0  0.15625 0.34375 0  0.1875 0.34375 0  0.21875 0.34375 0  0.25 0.34375 0  0.28125 0.34375 0  0.3125 0.34375 0  0.34375 0.34375 0  0.375 0.34375 0  0.40625 0.34375 0  0.4375 0.34375 0  0.46875 0.34375 0  0.5 0.34375 0  0.53125 0.34375 0  0.5625 0.34375 0  0.59375 0.34375 0  0.625 0.34375 0  0.65625 0.34375 0  0.6875 0.34375 0  0.71875 0.34375 0  0.75 0.34375 0  0.78125 0.34375 0  0.8125 0.34375 0  0.84375 0.34375 0  0.875 0.34375 0  0.90625 0.34375 0  0.9375 0.34375 0  0.96875 0.34375 0  1 0.34375 0  0 0.375 0  0.03125 0.375 0  0.0625 0.375 0  0.09375 0.375 0  0.125 0.375 0  0.15625 0.375 0  0.1875 0.375 0  0.21875 0.375 0  0.25 0.375 0  0.28125 0.375 0  0.3125 0.375 0  0.34375 0.375 0  0.375 0.375 0  0.40625 0.375 0  0.4375 0.375 0  0.46875 0.375 0  0.5 0.375 0  0.53125 0.375 0  0.5625 0.375 0  0.59375 0.375 0  0.625 0.375 0  0.65625 0.375 0  0.6875 0.375 0  0.71875 0.375 0  0.75 0.375 0  0.78125 0.375 0  0.8125 0.375 0  0.84375 0.375 0  0.875 0.375 0  0.90625 0.375 0  0.9375 0.375 0  0.96875 0.375 0  1 0.375 0  0 0.40625 0  0.03125 0.40625 0  0.0625 0.40625 0  0.09375 0.40625 0  0.125 0.40625 0  0.15625 0.40625 0  0.1875 0.40625 0  0.21875 0.40625 0  0.25 0.40625 0  0.28125 0.40625 0  0.3125 0.40625 0  0.34375 0.40625 0  0.375 0.40625 0  0.40625 0.40625 0  0.4375 0.40625 0  0.46875 0.40625 0  0.5 0.40625 0  0.53125 0.40625 0  0.5625 0.40625 0  0.59375 0.40625 0  0.625 0.40625 0  0.65625 0.40625 0  0.6875 0.40625 0  0.71875 0.40625 0  0.75 0.40625 0  0.78125 0.40625 0  0.8125 0.40625 0  0.84375 0.40625 0  0.875 0.40625 0  0.90625 0.40625 0  0.9375 0.40625 0  0.96875 0.40625 0  1 0.40625 0  0 0.4375 0  0.03125 0.4375 0  0.0625 0.4375 0  0.09375 0.4375 0  0.125 0.4375 0  0.15625 0.4375 0  0.1875 0.4375 0  0.21875 0.4375 0  0.25 0.4375 0  0.28125 0.4375 0  0.3125 0.4375 0  0.34375 0.4375 0  0.375 0.4375 0  0.40625 0.4375 0  0.4375 0.4375 0  0.46875 0.4375 0  0.5 0.4375 0  0.53125 0.4375 0  0.5625 0.4375 0  0.59375 0.4375 0  0.625 0.4375 0  0.65625 0.4375 0  0.6875 0.4375 0  0.71875 0.4375 0  0.75 0.4375 0  0.78125 0.4375 0  0.8125 0.4375 0  0.84375 0.4375 0  0.875 0.4375 0  0.90625 0.4375 0  0.9375 0.4375 0  0.96875 0.4375 0  1 0.4375 0  0 0.46875 0  0.03125 0.46875 0  0.0625 0.46875 0  0.09375 0.46875 0  0.125 0.46875 0  0.15625 0.46875 0  0.1875 0.46875 0  0.21875 0.46875 0  0.25 0.46875 0  0.28125 0.46875 0  0.3125 0.46875 0  0.34375 0.46875 0  0.375 0.46875 0  0.40625 0.46875 0  0.4375 0.46875 0  0.46875 0.46875 0  0.5 0.46875 0  0.53125 0.46875 0  0.5625 0.46875 0  0.59375 0.46875 0  0.625 0.46875 0  0.65625 0.46875 0  0.6875 0.46875 0  0.71875 0.46875 0  0.75 0.46875 0  0.78125 0.46875 0  0.8125 0.46875 0  0.84375 0.46875 0  0.875 0.46875 0  0.90625 0.46875 0  0.9375 0.46875 0  0.96875 0.46875 0  1 0.46875 0  0 0.5 0  0.03125 0.5 0  0.0625 0.5 0  0.09375 0.5 0  0.125 0.5 0  0.15625 0.5 0  0.1875 0.5 0  0.21875 0.5 0  0.25 0.5 0  0.28125 0.5 0  0.3125 0.5 0  0.34375 0.5 0  0.375 0.5 0  0.40625 0.5 0  0.4375 0.5 0  0.46875 0.5 0  0.5 0.5 0  0.53125 0.5 0  0.5625 0.5 0  0.59375 0.5 0  0.625 0.5 0  0.65625 0.5 0  0.6875 0.5 0  0.71875 0.5 0  0.75 0.5 0  0.78125 0.5 0  0.8125 0.5 0  0.84375 0.5 0  0.875 0.5 0  0.90625 0.5 0  0.9375 0.5 0  0.96875 0.5 0  1 0.5 0  0 0.53125 0  0.03125 0.53125 0  0.0625 0.53125 0  0.09375 0.53125 0  0.125 0.53125 0  0.15625 0.53125 0  0.1875 0.53125 0  0.21875 0.53125 0  0.25 0.53125 0  0.28125 0.53125 0  0.3125 0.53125 0  0.34375 0.53125 0  0.375 0.53125 0  0.40625 0.53125 0  0.4375 0.53125 0  0.46875 0.53125 0  0.5 0.53125 0  0.53125 0.53125 0  0.5625 0.53125 0  0.59375 0.53125 0  0.625 0.53125 0  0.65625 0.53125 0  0.6875 0.53125 0  0.71875 0.53125 0  0.75 0.53125 0  0.78125 0.531
[...]
<PointData  Scalars="phi"> 
<DataArray  type="Float64"  Name="phi"  format="ascii">0.0000000000000000e+00  0.0000000000000000e+00  0.0000000000000000e+00  0.0000000000000000e+00  0.0000000000000000e+00  0.0000000000000000e+00  0.0000000000000000e+00  0.0000000000000000e+00  0.0000000000000000e+00  0.0000000000000000e+00  0.0000000000000000e+00  0.0000000000000000e+00  0.0000000000000000e+00  0.0000000000000000e+00  0.0000000000000000e+00  0.0000000000000000e+00  0.0000000000000000e+00  0.0000000000000000e+00  0.0000000000000000e+00  0.0000000000000000e+00  0.0000000000000000e+00  0.0000000000000000e+00  0.0000000000000000e+00  0.0000000000000000e+00  0.0000000000000000e+00  0.0000000000000000e+00  0.0000000000000000e+00  0.0000000000000000e+00  0.0000000000000000e+00  0.0000000000000000e+00  0.0000000000000000e+00  0.0000000000000000e+00  0.0000000000000000e+00  0.0000000000000000e+00  -7.8351009542481482e-19  7.4745802217795831e-08  2.9453155493103866e-07  7.2232961292066246e-07  1.4108021353109809e-06  2.3996814827809212e-06  3.7136518711340414e-06  5.3608299874100766e-06  7.3319133383486700e-06  9.6000367774201083e-06  1.2121348994315675e-05  1.4836292124602196e-05  1.7671539863481814e-05  2.0542523493927637e-05  2.3356452011199654e-05  2.6015712912576687e-05  2.8421524968697468e-05  3.0477703987811815e-05  3.2094397629276505e-05  3.3191645921327927e-05  3.3702630289415099e-05  3.3576485405488663e-05  3.2780564648264243e-05  3.1302070908577634e-05  2.9148989326203337e-05  2.6350286895435709e-05  2.2955375934956633e-05  1.9032876314241268e-05  1.4668763129610149e-05  9.9640797187218020e-06  5.0326263808628414e-06  0.0000000000000000e+00  0.0000000000000000e+00  -7.4745802220888481e-08  -3.0531350934371817e-18  3.6466159319841958e-07  1.1452194509251613e-06  2.4471818618612777e-06  4.3503354403390718e-06  6.9045079964743388e-06  1.0126528895090607e-05  1.3998520743770703e-05  1.8467601919657832e-05  2.3447023124248130e-05  2.8818704457936078e-05  3.4437084333633266e-05  4.0134139884808929e-05  4.5725392286761601e-05  5.1016671347769912e-05  5.5811383330549714e-05  5.9918005405469574e-05  6.3157520218376980e-05  6.5370505181980442e-05  6.6423603263886244e-05  6.6215124837389289e-05  6.4679562803722797e-05  6.1790844601745425e-05  5.7564193615401936e-05  5.2056527600054443e-05  4.5365382178515258e-05  3.7626413359062733e-05  2.9009606689410237e-05  1.9714406968431497e-05  9.9640797187218257e-06  0.0000000000000000e+00  0.0000000000000000e+00  -2.9453155493558040e-07  -3.6466159320738876e-07  -6.5872358611556281e-18  9.8849006330101645e-07  2.7594370964070329e-06  5.4331972699902045e-06  9.0855123838741179e-06  1.3742957070465770e-05  1.9380370949833734e-05  2.5920392686362888e-05  3.3235130020236578e-05  4.1149915898225164e-05  4.9449018913731889e-05  5.7883099456216728e-05  6.6178134173806413e-05  7.4045473194764188e-05  8.1192649265485509e-05  8.7334527293860499e-05  9.2204367934268800e-05  9.5564380413583943e-05  9.7215357757761645e-05  9.7005021305819492e-05  9.4834749685712726e-05  9.0664428556396585e-05  8.4515229256693341e-05  7.6470204609502157e-05  6.6672675877220701e-05  5.5322473346551405e-05  4.2670180217947515e-05  2.9009606689410352e-05  1.4668763129610240e-05  0.0000000000000000e+00  0.0000000000000000e+00  -7.2232961292654341e-07  -1.1452194509367758e-06  -9.8849006331807569e-07  -1.1042011809452570e-17  2.0323359711514649e-06  5.2701140872166606e-06  9.8160274329067158e-06  1.5707817939132580e-05  2.2914850048982868e-05  3.1337459141996763e-05  4.0809119317306810e-05  5.1101364861553253e-05  6.1931291925179465e-05  7.2971365737597912e-05  8.3861167990228149e-05  9.4220642292502092e-05  1.0366433581620219e-04  1.1181609470120890e-04  1.1832365108162575e-04  1.2287254149303915e-04  1.2519881990476195e-04  1.2510007283130596e-04  1.2244430727595363e-04  1.1717636228376899e-04  1.0932158862475314e-04  9.8986645008021864e-05  8.6357369083285270e-05  7.1693792344532629e-05  5.5322473346551716e-05  3.7626413359063085e-05  1.9032876314241491e-05  0.0000000000000000e+00  0.0000000000000000e+00  -1.4108021353180606e-06  -2.4471818618752605e-06  -2.7594370964275667e-06  -2.0323359711780389e-06  -1.5980434971072937e-17  3.5411670509965954e-06  8.7220450522901054e-06  1.5593284370135561e-05  2.4121027313481278e-05  3.4186052308838157e-05  4.5586395774177618e-05  5.8043371100740503e-05  7.1210771492793916e-05  8.4686918799151150e-05  9.8029108709421110e-05  1.1076990809620450e-04  1.2243468651625816e-04  1.3255971379597380e-04  1.4071013116982871e-04  1.4649710558381604e-04  1.4959350546897015e-04  1.4974749046330440e-04  1.4679348516062786e-04  1.4066010502163638e-04  1.3137471729443470e-04  1.1906444660689060e-04  1.0395356855307757e-04  8.6357369083285920e-05  6.6672675877221555e-05  4.5365382178516017e-05  2.2955375934957070e-05  0.0000000000000000e+00  0.0000000000000000e+00  -2.3996814827890354e-06  -4.3503354403550943e-06  -5.4331972700137283e-06  -5.2701140872470911e-06  -3.5411670510331703e-06  -2.0909403403022569e-17  5.5137971279738794e-06  1.3065752514358082e-05  2.2621394031645832e-05  3.4045170203867930e-05  4.7103475842265452e-05  6.1471688006520592e-05  7.6744961648266656e-05  9.2452387409309712e-05  1.0807398225682523e-04  1.2305987203735434e-04  1.3685093793691140e-04  1.4890013961973639e-04  1.5869369878606678e-04  1.6577132918299959e-04  1.6974473266013492e-04  1.7031364441478879e-04  1.6727880168653528e-04  1.6055132531833535e-04  1.5015813830593486e-04  1.3624319436531684e-04  1.1906444660689174e-04  9.8986645008023518e-05  7.6470204609503851e-05  5.2056527600055798e-05  2.6350286895436448e-05  0.0000000000000000e+00  0.0000000000000000e+00  -3.7136518711430030e-06  -6.9045079964920333e-06  -9.0855123839000879e-06  -9.8160274329402939e-06  -8.7220450523304259e-06  -5.5137971280199326e-06  -2.5325234360011721e-17  7.9018420630957191e-06  1.8159497595555668e-05  3.0624687385151149e-05  4.5036458182764102e-05  6.1029143931216251e-05  7.8144629275829581e-05  9.5848462319154566e-05  1.1354921297370544e-04  1.3062034567288620e-04  1.4642377555633599e-04  1.6033420941010036e-04  1.7176333924911747e-04  1.8018295878897362e-04  1.8514611109785533e-04  1.8630544800183815e-04  1.8342808556174616e-04  1.7640637113987924e-04  1.6526413112880560e-04  1.5015813830593654e-04  1.3137471729443741e-04  1.0932158862475620e-04  8.4515229256696160e-05  5.7564193615404064e-05  2.9148989326204475e-05  0.0000000000000000e+00  0.0000000000000000e+00  -5.3608299874196854e-06  -1.0126528895109575e-05  -1.3742957070493595e-05  -1.5707817939168528e-05  -1.5593284370178688e-05  -1.3065752514407281e-05  -7.9018420631497428e-06  -2.8754556115791542e-17  1.0612765564364587e-05  2.3779306699380089e-05  3.9215997743234938e-05  5.6521520559895777e-05  7.5190456290773167e-05  9.4631179762108799e-05  1.1418738466936156e-04  1.3316242523949594e-04  1.5084554877548378e-04  1.6653901762084204e-04  1.7958508158864806e-04  1.8939176424543320e-04  1.9545646855741156e-04  1.9738648769200115e-04  1.9491562214227394e-04  1.8791625036346888e-04  1.7640637113988168e-04  1.6055132531833942e-04  1.4066010502164123e-04  1.1717636228377388e-04  9.0664428556400827e-05  6.1790844601748555e-05  3.1302070908579287e-05  0.0000000000000000e+00  0.0000000000000000e+00  -7.3319133383587159e-06  -1.3998520743790532e-05  -1.9380370949862808e-05  -2.2914850049020395e-05  -2.4121027313526242e-05  -2.2621394031697054e-05  -1.8159497595611803e-05  -1.0612765564424194e-05  -3.0801427530542024e-17  1.3516771717247618e-05  2.9636185051988319e-05  4.7927038575292636e-05  6.7843061676208297e-05  8.8742400282109228e-05  1.0991108723342289e-04  1.3058960802128427e-04  1.5000155065817480e-04  1.6738324522475918e-04  1.8201325734547557e-04  1.9324060210247060e-04  2.0051059063795937e-04  2.0338730918031473e-04  2.0157185611133433e-04  1.9491562214227724e-04  1.8342808556175174e-04  1.6727880168654233e-04  1.4679348516063534e-04  1.2244430727596076e-04  9.4834749685718744e-05  6.4679562803727133e-05  3.2780564648266506e-05  0.0000000000000000e+00  0.0000000000000000e+00  -9.6000367774303845e-06  -1.8467601919678107e-05  -2.5920392686392591e-05  -3.1337459142035063e-05  -3.4186052308883998e-05  -3.4045170203920040e-05  -3.0624687385208117e-05  -2.3779306699440405e-05  -1.3516771717309726e-05  -3.1173808422449139e-17  1.6456967646861096e-05  3.5399067446274441e-05  5.6245993531001882e-05  7.8313070014568789e-05  1.0083642675914358e-04  1.2300152333968688e-04  1.4397393424019715e-04  1.6293121847575355e-04  1.7909465208944990e-04  1.9175960406940355e-04  2.0032338511051100e-04  2.0430949245278277e-04  2.0338730918031896e-04  1.9738648769200855e-04  1.8630544800184761e-04  1.7031364441479933e-04  1.4974749046331497e-04  1.2510007283131564e-04  9.7005021305827515e-05  6.6215124837395008e-05  3.3576485405491618e-05  0.0000000000000000e+00  0.0000000000000000e+00  -1.2121348994325980e-05  -2.3447023124268445e-05  -3.3235130020266312e-05  -4.0809119317345116e-05  -4.5586395774223378e-05  -4.7103475842317344e-05  -4.5036458182820671e-05  -3.9215997743294610e-05  -2.9636185052049502e-05  -1.6456967646922174e-05  -2.9710142858563849e-17  1.9261937652841758e-05  4.0721562291024985e-05  6.3659129476016546e-05  8.7269059313237204e-05  1.1069013470221100e-04  1.3303811979538282e-04  1.5343955094225669e-04  1.7106540457783448e-04  1.8516334838169105e-04  1.9508733353773740e-04  2.0032338511051609e-04  2.0051059063796864e-04  1.9545646855742370e-04  1.8514611109786929e-04  1.6974473266014945e-04  1.4959350546898422e-04  1.2519881990477453e-04  9.7215357757771904e-05  6.6423603263893481e-05  3.3702630289418819e-05  0.0000000000000000e+00  0.0000000000000000e+00  -1.4836292124612333e-05  -2.8818704457956057e-05  -4.1149915898254369e-05  -5.1101364861590808e-05  -5.8043371100785274e-05  -6.1471688006571238e-05  -6.1029143931271261e-05  -5.6521520559953551e-05  -4.7927038575351549e-05  -3.5399067446332852e-05  -1.9261937652898082e-05  -2.6399712094686716e-17  2.1759662368045814e-05  4.5270218095770276e-05  6.9692896040669352e-05  9.4128558807825510e-05  1.1765183542644561e-04  1.3934650663188918e-04  1.5834078574167667e-04  1.7384113969088233e-04  1.8516334838169701e-04  1.9175960406941453e-04  1.9324060210248545e-04  1.8939176424545069e-04  1.8018295878899249e-04  1.6577132918301854e-04  1.4649710558383393e-04  1.2287254149305490e-04  9.5564380413596642e-05  6.5370505181989319e-05  3.3191645921332494e-05  0.0000000000000000e+00  0.0000000000000000e+00  -1.7671539863491606e-05  -3.4437084333652552e-05  -4.9449018913760037e-05  -6.1931291925215596e-05  -7.1210771492836878e-05  -7.6744961648315079e-05  -7.8144629275881975e-05  -7.5190456290827892e-05  -6.7843061676263727e-05  -5.6245993531056363e-05  -4.0721562291076946e-05  -2.1759662368093797e-05  -2.1381696879153832e-17  2.3791600272206958e-05  4.8751909176865610e-05  7.3952930610651053e-05  9.8437215730867855e-05  1.2125450054463718e-04  1.4149826161559767e-04  1.5834078574168339e-04  1.7106540457784711e-04  1.7909465208946728e-04  1.8201325734549652e-04  1.7958508158867121e-04  1.7176333924914154e-04  1.5869369878609047e-04  1.4071013116985070e-04  1.1832365108164480e-04  9.2204367934284033e-05  6.3157520218387592e-05  3.2094397629281946e-05  0.0000000000000000e+00  0.0000000000000000e+00  -2.0542523493936914e-05  -4.0134139884827191e-05  -5.7883099456243345e-05  -7.2971365737632010e-05  -8.4686918799191591e-05  -9.2452387409355127e-05  -9.5848462319203450e-05  -9.4631179762159499e-05  -8.8742400282160118e-05  -7.8313070014618283e-05  -6.3659129476063072e-05  -4.5270218095812391e-05  -2.3791600272243448e-05  -1.4941261808988745e-17  2.5225733938962282e-05  5.0938010621234936e-05  7.6156649264451902e-05  9.9906415371255080e-05  1.2125450054464459e-04  1.3934650663190317e-04  1.5343955094227637e-04  1.6293121847577773e-04  1.6738324522478658e-04  1.6653901762087123e-04  1.6033420941012996e-04  1.4890013961976493e-04  1.3255971379599993e-04  1.1181609470123138e-04  8.7334527293878334e-05  5.9918005405481934e-05  3.0477703987818137e-05  0.0000000000000000e+00  0.0000000000000000e+00  -2.3356452011208293e-05  -4.5725392286778582e-05  -6.6178134173831160e-05  -8.3861167990259712e-05  -9.8029108709458420e-05  -1.0807398225686692e-04  -1.1354921297375002e-04  -1.1418738466940743e-04  -1.0991108723346845e-04  -1.0083642675918724e-04  -8.7269059313277455e-05  -6.9692896040704792e-05  -4.8751909176895060e-05  -2.5225733938984826e-05  -7.4800886430986512e-18  2.5967470843587491e-05  5.1683304905137149e-05  7.6156649264459708e-05  9.8437215730882966e-05  1.1765183542646716e-04  1.3303811979540979e-04  1.4397393424022832e-04  1.5000155065820879e-04  1.5084554877551904e-04  1.4642377555637104e-04  1.3685093793694474e-04  1.2243468651628841e-04  1.0366433581622807e-04  8.1192649265505920e-05  5.5811383330563823e-05  2.8421524968704661e-05  0.0000000000000000e+00  0.0000000000000000e+00  -2.6015712912584588e-05  -5.1016671347785429e-05  -7.4045473194786726e-05  -9.4220642292530769e-05  -1.1076990809623822e-04  -1.2305987203739180e-04  -1.3062034567292596e-04  -1.3316242523953638e-04  -1.3058960802132385e-04  -1.2300152333972409e-04  -1.1069013470224435e-04  -9.4128558807853686e-05  -7.3952930610672954e-05  -5.0938010621249695e-05  -2.5967470843594505e-05  5.2390684793840964e-19  2.5967470843595541e-05  5.0938010621250718e-05  7.3952930610673970e-05  9.4128558807854621e-05  1.1069013470224522e-04  1.2300152333972493e-04  1.3058960802132463e-04  1.3316242523953709e-04  1.3062034567292658e-04  1.2305987203739234e-04  1.1076990809623870e-04  9.4220642292531175e-05  7.4045473194787051e-05  5.1016671347785660e-05  2.6015712912584710e-05  0.0000000000000000e+00  0.0000000000000000e+00  -2.8421524968704552e-05  -5.5811383330563606e-05  -8.1192649265505648e-05  -1.0366433581622771e-04  -1.2243468651628800e-04  -1.3685093793694425e-04  -1.4642377555637050e-04  -1.5084554877551839e-04  -1.5000155065820808e-04  -1.4397393424022759e-04  -1.3303811979540898e-04  -1.1765183542646628e-04  -9.8437215730881990e-05  -7.6156649264458732e-05  -5.1683304905136153e-05  -2.5967470843586475e-05  8.5089095494656342e-18  2.5225733938985853e-05  4.8751909176896063e-05  6.9692896040705714e-05  8.7269059313278323e-05  1.0083642675918812e-04  1.0991108723346929e-04  1.1418738466940819e-04  1.1354921297375068e-04  1.0807398225686754e-04  9.8029108709458962e-05  8.3861167990260173e-05  6.6178134173831512e-05  4.5725392286778833e-05  2.3356452011208426e-05  0.0000000000000000e+00  0.0000000000000000e+00  -3.0477703987818042e-05  -5.9918005405481765e-05  -8.7334527293878077e-05  -1.1181609470123107e-04  -1.3255971379599955e-04  -1.4890013961976452e-04  -1.6033420941012947e-04  -1.6653901762087069e-04  -1.6738324522478601e-04  -1.6293121847577710e-04  -1.5343955094227561e-04  -1.3934650663190233e-04  -1.2125450054464369e-04  -9.9906415371254172e-05  -7.6156649264450967e-05  -5.0938010621233980e-05  -2.5225733938961289e-05  1.5953233398878306e-17  2.3791600272244451e-05  4.5270218095813360e-05  6.3659129476063993e-05  7.8313070014619205e-05  8.8742400282161040e-05  9.4631179762160340e-05  9.5848462319204181e-05  9.2452387409355791e-05  8.4686918799192187e-05  7.2971365737632498e-05  5.7883099456243725e-05  4.0134139884827455e-05  2.0542523493937056e-05  0.0000000000000000e+00  0.0000000000000000e+00  -3.2094397629281858e-05  -6.3157520218387429e-05  -9.2204367934283816e-05  -1.1832365108164453e-04  -1.4071013116985037e-04  -1.5869369878609009e-04  -1.7176333924914119e-04  -1.7958508158867083e-04  -1.8201325734549606e-04  -1.7909465208946676e-04  -1.7106540457784641e-04  -1.5834078574168263e-04  -1.4149826161559694e-04  -1.2125450054463641e-04  -9.8437215730867015e-05  -7.3952930610650158e-05  -4.8751909176864648e-05  -2.3791600272205955e-05  2.2378746394599400e-17  2.1759662368094780e-05  4.0721562291077908e-05  5.6245993531057312e-05  6.7843061676264648e-05  7.5190456290828733e-05  7.8144629275882747e-05  7.6744961648315770e-05  7.1210771492837487e-05  6.1931291925216097e-05  4.9449018913760424e-05  3.4437084333652809e-05  1.7671539863491748e-05  0.0000000000000000e+00  0.0000000000000000e+00  -3.3191645921332427e-05  -6.5370505181989183e-05  -9.5564380413596425e-05  -1.2287254149305466e-04  -1.4649710558383363e-04  -1.6577132918301821e-04  -1.8018295878899213e-04  -1.8939176424545025e-04  -1.9324060210248502e-04  -1.9175960406941402e-04  -1.8516334838169639e-04  -1.7384113969088166e-04  -1.5834078574167591e-04  -1.3934650663188840e-04  -1.1765183542644480e-04  -9.4128558807824616e-05  -6.9692896040668390e-05  -4.5270218095769287e-05  -2.1759662368044818e-05  2.7375627163698254e-17  1.9261937652899051e-05  3.5399067446333794e-05  4.7927038575352463e-05  5.6521520559954419e-05  6.1029143931272054e-05  6.1471688006571942e-05  5.8043371100785884e-05  5.1101364861591302e-05  4.1149915898254762e-05  2.8818704457956325e-05  1.4836292124612476e-05  0.0000000000000000e+00  0.0000000000000000e+00  -3.3702630289418758e-05  -6.6423603263893373e-05  -9.7215357757771728e-05  -1.2519881990477431e-04  -1.4959350546898395e-04  -1.6974473266014918e-04  -1.8514611109786893e-04  -1.9545646855742332e-04  -2.0051059063796818e-04  -2.0032338511051563e-04  -1.9508733353773691e-04  -1.8516334838169048e-04  -1.7106540457783394e-04  -1.5343955094225602e-04  -1.3303811979538209e-04  -1.1069013470221015e-04  -8.7269059313236283e-05  -6.3659129476015584e-05  -4.0721562291024023e-05  -1.9261937652840812e-05  3.0654610603511446e-17  1.6456967646923106e-05  2.9636185052050410e-05  3.9215997743295478e-05  4.5036458182821457e-05  4.7103475842318042e-05  4.5586395774223975e-05  4.0809119317345604e-05  3.3235130020266691e-05  2.3447023124268716e-05  1.2121348994326122e-05  0.0000000000000000e+00  0.0000000000000000e+00  -3.3576485405491550e-05  -6.6215124837394872e-05  -9.7005021305827352e-05  -1.2510007283131545e-04  -1.4974749046331475e-04  -1.7031364441479909e-04  -1.8630544800184734e-04  -1.9738648769200817e-04  -2.0338730918031858e-04  -2.0430949245278234e-04  -2.0032338511051057e-04  -1.9175960406940312e-04  -1.7909465208944944e-04  -1.6293121847575293e-04  -1.4397393424019642e-04  -1.2300152333968606e-04  -1.0083642675914271e-04  -7.8313070014567881e-05  -5.6245993531000974e-05  -3.5399067446273533e-05  -1.6456967646860185e-05  3.2074557316309888e-17  1.3516771717310610e-05  2.3779306699441248e-05  3.0624687385208890e-05  3.4045170203920731e-05  3.4186052308884588e-05  3.1337459142035550e-05  2.5920392686392974e-05  1.8467601919678367e-05  9.6000367774305234e-06  0.0000000000000000e+00  0.0000000000000000e+00  -3.2780564648266452e-05  -6.4679562803727039e-05  -9.4834749685718608e-05  -1.2244430727596060e-04  -1.4679348516063518e-04  -1.6727880168654211e-04  -1.8342808556175155e-04  -1.9491562214227697e-04  -2.0157185611133406e-04  -2.0338730918031440e-04  -2.0051059063795905e-04  -1.9324060210247027e-04  -1.8201325734547511e-04  -1.6738324522475858e-04  -1.5000155065817412e-04  -1.3058960802128351e-04  -1.0991108723342206e-04  -8.8742400282108361e-05  -6.7843061676207457e-05  -4.7927038575291789e-05  -2.9636185051987452e-05  -1.3516771717246759e-05  3.1637442153912841e-17  1.0612765564424991e-05  1.8159497595612535e-05  2.2621394031697708e-05  2.4121027313526815e-05  2.2914850049020866e-05  1.9380370949863167e-05  1.3998520743790788e-05  7.3319133383588505e-06  0.0000000000000000e+00  0.0000000000000000e+00  -3.1302070908579253e-05  -6.1790844601748487e-05  -9.0664428556400746e-05  -1.1717636228377376e-04  -1.4066010502164112e-04  -1.6055132531833926e-04  -1.7640637113988151e-04  -1.8791625036346869e-04  -1.9491562214227372e-04  -1.9738648769200090e-04  -1.9545646855741129e-04  -1.8939176424543291e-04  -1.7958508158864769e-04  -1.6653901762084153e-04  -1.5084554877548315e-04  -1.3316242523949527e-04  -1.1418738466936081e-04  -9.4631179762108013e-05  -7.5190456290772354e-05  -5.6521520559894964e-05  -3.9215997743234125e-05  -2.3779306699379283e-05  -1.0612765564363804e-05  2.9497111667256169e-17  7.9018420631504272