<?xml version="1.0"?>
<VTKFile type="UnstructuredGrid"  version="0.1"  >
<UnstructuredGrid>
<Piece  NumberOfPoints="1089" NumberOfCells="2048">
<Points>
<DataArray  type="Float64"  NumberOfComponents="3"  format="ascii">0 0 0  0.03125 0 0  0.0625 0 0  0.09375 0 0  0.125 0 0  0.15625 0 0  0.1875 0 0  0.21875 0 0  0.25 0 0  0.28125 0 0  0.3125 0 0  0.34375 0 0  0.375 0 0  0.40625 0 0  0.4375 0 0  0.46875 0 0  0.5 0 0  0.53125 0 0  0.5625 0 0  0.59375 0 0  0.625 0 0  0.65625 0 0  0.6875 0 0  0.71875 0 0  0.75 0 0  0.78125 0 0  0.8125 0 0  0.84375 0 0  0.875 0 0  0.90625 0 0  0.9375 0 0  0.96875 0 0  1 0 0  0 0.03125 0  0.03125 0.03125 0  0.0625 0.03125 0  0.09375 0.03125 0  0.125 0.03125 0  0.15625 0.03125 0  0.1875 0.03125 0  0.21875 0.03125 0  0.25 0.03125 0  0.28125 0.03125 0  0.3125 0.03125 0  0.34375 0.03125 0  0.375 0.03125 0  0.40625 0.03125 0  0.4375 0.03125 0  0.46875 0.03125 0  0.5 0.03125 0  0.53125 0.03125 0  0.5625 0.03125 0  0.59375 0.03125 0  0.625 0.03125 0  0.65625 0.03125 0  0.6875 0.03125 0  0.71875 0.03125 0  0.75 0.03125 0  0.78125 0.03125 0  0.8125 0.03125 0  0.84375 0.03125 0  0.875 0.03125 0  0.90625 0.03125 0  0.9375 0.03125 0  0.96875 0.03125 0  1 0.03125 0  0 0.0625 0  0.03125 0.0625 0  0.0625 0.0625 0  0.09375 0.0625 0  0.125 0.0625 0  0.15625 0.0625 0  0.1875 0.0625 0  0.21875 0.0625 0  0.25 0.0625 0  0.28125 0.0625 0  0.3125 0.0625 0  0.34375 0.0625 0  0.375 0.0625 0  0.40625 0.0625 0  0.4375 0.0625 0  0.46875 0.0625 0  0.5 0.0625 0  0.53125 0.0625 0  0.5625 0.0625 0  0.59375 0.0625 0  0.625 0.0625 0  0.65625 0.0625 0  0.6875 0.0625 0  0.71875 0.0625 0  0.75 0.0625 0  0.78125 0.0625 0  0.8125 0.0625 0  0.84375 0.0625 0  0.875 0.0625 0  0.90625 0.0625 0  0.9375 0.0625 0  0.96875 0.0625 0  1 0.0625 0  0 0.09375 0  0.03125 0.09375 0  0.0625 0.09375 0  0.09375 0.09375 0  0.125 0.09375 0  0.15625 0.09375 0  0.1875 0.09375 0  0.21875 0.09375 0  0.25 0.09375 0  0.28125 0.09375 0  0.3125 0.09375 0  0.34375 0.09375 0  0.375 0.09375 0  0.40625 0.09375 0  0.4375 0.09375 0  0.46875 0.09375 0  0.5 0.09375 0  0.53125 0.09375 0  0.5625 0.09375 0  0.59375 0.09375 0  0.625 0.09375 0  0.65625 0.09375 0  0.6875 0.09375 0  0.71875 0.09375 0  0.75 0.09375 0  0.78125 0.09375 0  0.8125 0.09375 0  0.84375 0.09375 0  0.875 0.09375 0  0.90625 0.09375 0  0.9375 0.09375 0  0.96875 0.09375 0  1 0.09375 0  0 0.125 0  0.03125 0.125 0  0.0625 0.125 0  0.09375 0.125 0  0.125 0.125 0  0.15625 0.125 0  0.1875 0.125 0  0.21875 0.125 0  0.25 0.125 0  0.28125 0.125 0  0.3125 0.125 0  0.34375 0.125 0  0.375 0.125 0  0.40625 0.125 0  0.4375 0.125 0  0.46875 0.125 0  0.5 0.125 0  0.53125 0.125 0  0.5625 0.125 0  0.59375 0.125 0  0.625 0.125 0  0.65625 0.125 0  0.6875 0.125 0  0.71875 0.125 0  0.75 0.125 0  0.78125 0.125 0  0.8125 0.125 0  0.84375 0.125 0  0.875 0.125 0  0.90625 0.125 0  0.9375 0.125 0  0.96875 0.125 0  1 0.125 0  0 0.15625 0  0.03125 0.15625 0  0.0625 0.15625 0  0.09375 0.15625 0  0.125 0.15625 0  0.15625 0.15625 0  0.1875 0.15625 0  0.21875 0.15625 0  0.25 0.15625 0  0.28125 0.15625 0  0.3125 0.15625 0  0.34375 0.15625 0  0.375 0.15625 0  0.40625 0.15625 0  0.4375 0.15625 0  0.46875 0.15625 0  0.5 0.15625 0  0.53125 0.15625 0  0.5625 0.15625 0  0.59375 0.15625 0  0.625 0.15625 0  0.65625 0.15625 0  0.6875 0.15625 0  0.71875 0.15625 0  0.75 0.15625 0  0.78125 0.15625 0  0.8125 0.15625 0  0.84375 0.15625 0  0.875 0.15625 0  0.90625 0.15625 0  0.9375 0.15625 0  0.96875 0.15625 0  1 0.15625 0  0 0.1875 0  0.03125 0.1875 0  0.0625 0.1875 0  0.09375 0.1875 0  0.125 0.1875 0  0.15625 0.1875 0  0.1875 0.1875 0  0.21875 0.1875 0  0.25 0.1875 0  0.28125 0.1875 0  0.3125 0.1875 0  0.34375 0.1875 0  0.375 0.1875 0  0.40625 0.1875 0  0.4375 0.1875 0  0.46875 0.1875 0  0.5 0.1875 0  0.53125 0.1875 0  0.5625 0.1875 0  0.59375 0.1875 0  0.625 0.1875 0  0.65625 0.1875 0  0.6875 0.1875 0  0.71875 0.1875 0  0.75 0.1875 0  0.78125 0.1875 0  0.8125 0.1875 0  0.84375 0.1875 0  0.875 0.1875 0  0.90625 0.1875 0  0.9375 0.1875 0  0.96875 0.1875 0  1 0.1875 0  0 0.21875 0  0.03125 0.21875 0  0.0625 0.21875 0  0.09375 0.21875 0  0.125 0.21875 0  0.15625 0.21875 0  0.1875 0.21875 0  0.21875 0.21875 0  0.25 0.21875 0  0.28125 0.21875 0  0.3125 0.21875 0  0.34375 0.21875 0  0.375 0.21875 0  0.40625 0.21875 0  0.4375 0.21875 0  0.46875 0.21875 0  0.5 0.21875 0  0.53125 0.21875 0  0.5625 0.21875 0  0.59375 0.21875 0  0.625 0.21875 0  0.65625 0.21875 0  0.6875 0.21875 0  0.71875 0.21875 0  0.75 0.21875 0  0.78125 0.21875 0  0.8125 0.21875 0  0.84375 0.21875 0  0.875 0.21875 0  0.90625 0.21875 0  0.9375 0.21875 0  0.96875 0.21875 0  1 0.21875 0  0 0.25 0  0.03125 0.25 0  0.0625 0.25 0  0.09375 0.25 0  0.125 0.25 0  0.15625 0.25 0  0.1875 0.25 0  0.21875 0.25 0  0.25 0.25 0  0.28125 0.25 0  0.3125 0.25 0  0.34375 0.25 0  0.375 0.25 0  0.40625 0.25 0  0.4375 0.25 0  0.46875 0.25 0  0.5 0.25 0  0.53125 0.25 0  0.5625 0.25 0  0.59375 0.25 0  0.625 0.25 0  0.65625 0.25 0  0.6875 0.25 0  0.71875 0.25 0  0.75 0.25 0  0.78125 0.25 0  0.8125 0.25 0  0.84375 0.25 0  0.875 0.25 0  0.90625 0.25 0  0.9375 0.25 0  0.96875 0.25 0  1 0.25 0  0 0.28125 0  0.03125 0.28125 0  0.0625 0.28125 0  0.09375 0.28125 0  0.125 0.28125 0  0.15625 0.28125 0  0.1875 0.28125 0  0.21875 0.28125 0  0.25 0.28125 0  0.28125 0.28125 0  0.3125 0.28125 0  0.34375 0.28125 0  0.375 0.28125 0  0.40625 0.28125 0  0.4375 0.28125 0  0.46875 0.28125 0  0.5 0.28125 0  0.53125 0.28125 0  0.5625 0.28125 0  0.59375 0.28125 0  0.625 0.28125 0  0.65625 0.28125 0  0.6875 0.28125 0  0.71875 0.28125 0  0.75 0.28125 0  0.78125 0.28125 0  0.8125 0.28125 0  0.84375 0.28125 0  0.875 0.28125 0  0.90625 0.28125 0  0.9375 0.28125 0  0.96875 0.28125 0  1 0.28125 0  0 0.3125 0  0.03125 0.3125 0  0.0625 0.3125 0  0.09375 0.3125 0  0.125 0.3125 0  0.15625 0.3125 0  0.1875 0.3125 0  0.21875 0.3125 0  0.25 0.3125 0  0.28125 0.3125 0  0.3125 0.3125 0  0.34375 0.3125 0  0.375 0.3125 0  0.40625 0.3125 0  0.4375 0.3125 0  0.46875 0.3125 0  0.5 0.3125 0  0.53125 0.3125 0  0.5625 0.3125 0  0.59375 0.3125 0  0.625 0.3125 0  0.65625 0.3125 0  0.6875 0.3125 0  0.71875 0.3125 0  0.75 0.3125 0  0.78125 0.3125 0  0.8125 0.3125 0  0.84375 0.3125 0  0.875 0.3125 0  0.90625 0.3125 0  0.9375 0.3125 0  0.96875 0.3125 0  1 0.3125 0  0 0.34375 0  0.03125 0.34375 0  0.0625 0.34375 0  0.09375 0.34375 0  0.125 0.34375 0  0.15625 0.34375 0  0.1875 0.34375 0  0.21875 0.34375 0  0.25 0.34375 0  0.28125 0.34375 0  0.3125 0.34375 0  0.34375 0.34375 0  0.375 0.34375 0  0.40625 0.34375 0  0.4375 0.34375 0  0.46875 0.34375 0  0.5 0.34375 0  0.53125 0.34375 0  0.5625 0.34375 0  0.59375 0.34375 0  0.625 0.34375 0  0.65625 0.34375 0  0.6875 0.34375 0  0.71875 0.34375 0  0.75 0.34375 0  0.78125 0.34375 0  0.8125 0.34375 0  0.84375 0.34375 0  0.875 0.34375 0  0.90625 0.34375 0  0.9375 0.34375 0  0.96875 0.34375 0  1 0.34375 0  0 0.375 0  0.03125 0.375 0  0.0625 0.375 0  0.09375 0.375 0  0.125 0.375 0  0.15625 0.375 0  0.1875 0.375 0  0.21875 0.375 0  0.25 0.375 0  0.28125 0.375 0  0.3125 0.375 0  0.34375 0.375 0  0.375 0.375 0  0.40625 0.375 0  0.4375 0.375 0  0.46875 0.375 0  0.5 0.375 0  0.53125 0.375 0  0.5625 0.375 0  0.59375 0.375 0  0.625 0.375 0  0.65625 0.375 0  0.6875 0.375 0  0.71875 0.375 0  0.75 0.375 0  0.78125 0.375 0  0.8125 0.375 0  0.84375 0.375 0  0.875 0.375 0  0.90625 0.375 0  0.9375 0.375 0  0.96875 0.375 0  1 0.375 0  0 0.40625 0  0.03125 0.40625 0  0.0625 0.40625 0  0.09375 0.40625 0  0.125 0.40625 0  0.15625 0.40625 0  0.1875 0.40625 0  0.21875 0.40625 0  0.25 0.40625 0  0.28125 0.40625 0  0.3125 0.40625 0  0.34375 0.40625 0  0.375 0.40625 0  0.40625 0.40625 0  0.4375 0.40625 0  0.46875 0.40625 0  0.5 0.40625 0  0.53125 0.40625 0  0.5625 0.40625 0  0.59375 0.40625 0  0.625 0.40625 0  0.65625 0.40625 0  0.6875 0.40625 0  0.71875 0.40625 0  0.75 0.40625 0  0.78125 0.40625 0  0.8125 0.40625 0  0.84375 0.40625 0  0.875 0.40625 0  0.90625 0.40625 0  0.9375 0.40625 0  0.96875 0.40625 0  1 0.40625 0  0 0.4375 0  0.03125 0.4375 0  0.0625 0.4375 0  0.09375 0.4375 0  0.125 0.4375 0  0.15625 0.4375 0  0.1875 0.4375 0  0.21875 0.4375 0  0.25 0.4375 0  0.28125 0.4375 0  0.3125 0.4375 0  0.34375 0.4375 0  0.375 0.4375 0  0.40625 0.4375 0  0.4375 0.4375 0  0.46875 0.4375 0  0.5 0.4375 0  0.53125 0.4375 0  0.5625 0.4375 0  0.59375 0.4375 0  0.625 0.4375 0  0.65625 0.4375 0  0.6875 0.4375 0  0.71875 0.4375 0  0.75 0.4375 0  0.78125 0.4375 0  0.8125 0.4375 0  0.84375 0.4375 0  0.875 0.4375 0  0.90625 0.4375 0  0.9375 0.4375 0  0.96875 0.4375 0  1 0.4375 0  0 0.46875 0  0.03125 0.46875 0  0.0625 0.46875 0  0.09375 0.46875 0  0.125 0.46875 0  0.15625 0.46875 0  0.1875 0.46875 0  0.21875 0.46875 0  0.25 0.46875 0  0.28125 0.46875 0  0.3125 0.46875 0  0.34375 0.46875 0  0.375 0.46875 0  0.40625 0.46875 0  0.4375 0.46875 0  0.46875 0.46875 0  0.5 0.46875 0  0.53125 0.46875 0  0.5625 0.46875 0  0.59375 0.46875 0  0.625 0.46875 0  0.65625 0.46875 0  0.6875 0.46875 0  0.71875 0.46875 0  0.75 0.46875 0  0.78125 0.46875 0  0.8125 0.46875 0  0.84375 0.46875 0  0.875 0.46875 0  0.90625 0.46875 0  0.9375 0.46875 0  0.96875 0.46875 0  1 0.46875 0  0 0.5 0  0.03125 0.5 0  0.0625 0.5 0  0.09375 0.5 0  0.125 0.5 0  0.15625 0.5 0  0.1875 0.5 0  0.21875 0.5 0  0.25 0.5 0  0.28125 0.5 0  0.3125 0.5 0  0.34375 0.5 0  0.375 0.5 0  0.40625 0.5 0  0.4375 0.5 0  0.46875 0.5 0  0.5 0.5 0  0.53125 0.5 0  0.5625 0.5 0  0.59375 0.5 0  0.625 0.5 0  0.65625 0.5 0  0.6875 0.5 0  0.71875 0.5 0  0.75 0.5 0  0.78125 0.5 0  0.8125 0.5 0  0.84375 0.5 0  0.875 0.5 0  0.90625 0.5 0  0.9375 0.5 0  0.96875 0.5 0  1 0.5 0  0 0.53125 0  0.03125 0.53125 0  0.0625 0.53125 0  0.09375 0.53125 0  0.125 0.53125 0  0.15625 0.53125 0  0.1875 0.53125 0  0.21875 0.53125 0  0.25 0.53125 0  0.28125 0.53125 0  0.3125 0.53125 0  0.34375 0.53125 0  0.375 0.53125 0  0.40625 0.53125 0  0.4375 0.53125 0  0.46875 0.53125 0  0.5 0.53125 0  0.53125 0.53125 0  0.5625 0.53125 0  0.59375 0.53125 0  0.625 0.53125 0  0.65625 0.53125 0  0.6875 0.53125 0  0.71875 0.53125 0  0.75 0.53125 0  0.78125 0.531
[...]
<PointData  Scalars="theta_dt"> 
<DataArray  type="Float64"  Name="theta_dt"  format="ascii">-2.0344051631687967e+02  -9.7860842084410194e+01  -7.1717808880236376e+01  -2.2328186813041012e+02  -3.9644737195640403e+01  -2.0646048604822911e+02  -8.5105538146423243e+01  -1.8146613214444804e+02  -7.7532484769737749e+01  -2.3555434672730715e+02  -1.8625276919928233e+00  -2.4171410738580980e+02  -9.5456912205852419e+01  -6.5025441579158283e+01  -2.6069779685743106e+02  -8.7347007412209081e+01  -3.6053459900240647e+01  -2.2544001823695237e+02  -2.2544001823695180e+02  -3.6053459900240526e+01  -2.9340945793892836e+01  -1.7173812236893968e+02  -2.6580994845434384e+02  -1.9189990368361296e+02  -6.8695482089642681e+01  -5.5021831760421103e+00  -1.0534072602729074e+01  -8.0910533231634517e+01  -1.5641152938829785e+02  -2.0778508866132032e+02  -2.4460545079744017e+02  -2.5911995514617433e+02  -2.6163170422864641e+02  -9.9639449359413987e+01  -2.0768962568619125e+02  -1.2098368866220579e+02  -4.5147547019034072e+01  -2.2794538892285905e+02  -4.0472767065558280e+01  -1.8411531291141944e+02  -1.0885167328889899e+02  -1.8525627904471784e+02  -7.9151847586080365e+01  -2.1649760771358766e+02  -1.2416577054300557e+01  -2.4676260852502273e+02  -9.7450649084634549e+01  -8.7347007412209209e+01  -2.5536419655107980e+02  -8.9171358796563823e+01  -3.6806481456770683e+01  -2.3708509613391143e+02  -2.0101801571731656e+02  -3.6806481456770562e+01  -2.9953768106450781e+01  -1.9189990368361339e+02  -2.6037175895064615e+02  -1.9590797293881459e+02  -7.0130273063736652e+01  -6.2556074791087113e-01  -2.2351073281732791e+01  -8.2600450810761345e+01  -1.5967837960586695e+02  -2.2334377501111828e+02  -2.5168117380762675e+02  -2.6453199916336627e+02  -2.4318875961900527e+01  -1.0172054375246337e+02  -2.0092831088981762e+02  -1.2351058416136846e+02  -4.6090509947525696e+01  -2.2076986375253452e+02  -6.3283556953737339e+01  -1.8796079126199092e+02  -1.1112517648880572e+02  -1.5886638479915845e+02  -1.0264837973642543e+02  -2.2101943075072776e+02  -1.2675912779805842e+01  -2.4915303128849123e+02  -7.0954730182354567e+01  -8.9171358796563950e+01  -2.6069779685743077e+02  -6.3695090040679858e+01  -5.5824361299697237e+01  -2.4203691458947219e+02  -2.0521652813484525e+02  -1.9843832981120478e+01  -4.7419488443820235e+01  -1.9590797293881499e+02  -2.6580994845434401e+02  -1.6822454261061145e+02  -4.7419488443820001e+01  -6.3862636572950360e-01  -2.2817903373471506e+01  -1.0541760234066516e+02  -1.8093347109988142e+02  -2.2800858880611952e+02  -2.5693784958227724e+02  -1.6208276475318942e+02  -4.8915753223480067e+01  -7.4517816486793421e+01  -2.0512494970994351e+02  -1.4465614952170665e+02  -2.1517588847352009e+01  -2.2538091819496125e+02  -6.4605313109510405e+01  -1.6280787221048166e+02  -1.3434667561815760e+02  -1.6218450773916965e+02  -1.0479231939986653e+02  -1.9837665044870650e+02  -2.8621179955699624e+01  -2.5435690364787567e+02  -7.2436708375652145e+01  -1.1246686439516313e+02  -2.5036481763392490e+02  -6.5025441579158240e+01  -5.6990322834443383e+01  -2.4916523105596633e+02  -1.7841756291820309e+02  -2.0258296226543028e+01  -4.8409903707615349e+01  -2.1320772002412215e+02  -2.5537242908425173e+02  -1.7173812236894003e+02  -4.8409903707615115e+01  -2.0919319026631697e-01  -3.8562780215461530e+01  -1.0761938067816398e+02  -1.8471249270870919e+02  -2.3960108281644870e+02  -1.3902232502182707e+02  -1.7084978029741765e+02  -4.9937419846686417e+01  -7.6074214189409759e+01  -1.9348826206159160e+02  -1.4767747394315975e+02  -2.1967010575292701e+01  -2.1333037685386657e+02  -8.8393787244639540e+01  -1.6620831803971711e+02  -1.3715267379610074e+02  -1.3434667561815726e+02  -1.2826503048071851e+02  -2.0251999465238177e+02  -2.9218969059425103e+01  -2.5166483251842965e+02  -4.8386451945065680e+01  -1.1481587537827637e+02  -2.5559399966518399e+02  -4.2422788660300938e+01  -7.8397475237091356e+01  -2.5436935822273733e+02  -1.8214403664118868e+02  -7.8125833343425652e+00  -6.8695482089642951e+01  -2.1766082964636158e+02  -2.6070620133734405e+02  -1.4309271353492022e+02  -2.9340945793892718e+01  -2.1356245141866406e-01  -3.9368212062011672e+01  -1.3091215334766483e+02  -2.0353402622083007e+02  -4.2323304346959434e+00  -1.4192597997949349e+02  -1.7441819142490331e+02  -7.4517816486793691e+01  -4.8915753223479804e+01  -1.9752950616607043e+02  -1.6596355988769989e+02  -3.4331097292958348e+00  -2.1778604831724715e+02  -9.0240001933679665e+01  -1.3913436641290838e+02  -1.5886638479915925e+02  -1.3715267379610040e+02  -1.3094400590133600e+02  -1.7706907579789026e+02  -4.8386451945065481e+01  -2.5692116698483784e+02  -4.9397063449743932e+01  -1.3808606135399455e+02  -2.4055808651981778e+02  -4.3308841606057513e+01  -8.0034904460095433e+01  -2.5660404600997629e+02  -1.5389588267253177e+02  -7.9757588986081194e+00  -7.0130273063736922e+01  -2.3132852767783183e+02  -2.4556578194890460e+02  -1.4608138364237510e+02  -2.9953768106450664e+01  -2.9167269268206626e+00  -5.8335728101970830e+01  -1.3364641723677079e+02  -1.0017454561073197e+02  -4.3207279438532522e+00  -1.2089850635681056e+02  -1.7829068156388632e+02  -7.6074214189410029e+01  -4.9937419846686140e+01  -1.8140641516835450e+02  -1.6942991619690582e+02  -3.5048145154452359e+00  -2.0124932262775565e+02  -1.1400675234972982e+02  -1.4204036149501613e+02  -1.6218450773917044e+02  -1.0885167328889860e+02  -1.5339469526705571e+02  -1.8076738468251892e+02  -4.9397063449743733e+01  -2.4915303128849092e+02  -2.8621179955699652e+01  -1.4097016127515616e+02  -2.4558244271886963e+02  -2.4348307513711152e+01  -1.0290329550960162e+02  -2.6196354212138965e+02  -1.5711019046530092e+02  -1.0360747373908021e+00  -9.2350301465386565e+01  -2.3616011300871989e+02  -2.5069473012379103e+02  -1.1747220879598324e+02  -1.5151992773210768e+01  -2.9776464129527800e+00  -5.9554142670176141e+01  -1.4588169732949700e+02  -1.1793716175329078e+02  -4.1496820737828060e+00  -1.2342362271709516e+02  -1.8201450521125682e+02  -9.9639449359414613e+01  -2.3821337563632131e+01  -1.8519531480496599e+02  -1.8408526454708615e+02  -3.1661525915838498e+00  -2.0545266617911219e+02  -1.1638792581676661e+02  -1.1400675234972978e+02  -1.8146613214444812e+02  -1.1112517648880531e+02  -1.5659853513465958e+02  -1.5339469526705500e+02  -7.0954730182354581e+01  -2.5435690364787533e+02  -2.9218969059425131e+01  -1.6321715392797663e+02  -2.2632074445831594e+02  -2.4856852337802348e+01  -1.0505255940746662e+02  -2.5911580743356416e+02  -1.2839701010005265e+02  -1.0577144527909397e+00  -9.4279152897340794e+01  -2.4556578194890531e+02  -2.3132852767783203e+02  -1.1992576265076826e+02  -1.5468461073734096e+01  -1.0318556654614770e+01  -4.9973120738491339e+01  -1.3789489612925559e+02  -1.2040042673151844e+02  -4.2363533686585546e+00  -9.9590677088825586e+01  -1.8080319140434489e+02  -1.0172054375246402e+02  -2.4318875961900364e+01  -1.6514745654359731e+02  -1.8793011530002499e+02  -3.2322816443661093e+00  -1.8499115093113107e+02  -1.3913436641290866e+02  -1.1638792581676658e+02  -1.8525627904471790e+02  -8.3364369138469684e+01  -1.7706907579789095e+02  -1.5659853513465887e+02  -7.2436708375652174e+01  -2.4171410738581019e+02  -1.2416577054300541e+01  -1.6662614811725354e+02  -2.3104773597975660e+02  -1.0162553089688910e+01  -1.2839701010005342e+02  -2.6452776482059591e+02  -1.3107874207992012e+02  -6.2556074791087357e-01  -1.1747220879598393e+02  -2.5069473012379174e+02  -2.3616011300872006e+02  -9.2350301465386323e+01  -5.3896143464352138e+00  -4.9973120738491311e+01  -5.1016871803362399e+01  -1.4077500332584967e+02  -1.3419908665025000e+02  -2.5209651591439481e+01  -1.0167075281206587e+02  -1.8457949195895515e+02  -1.2331068497159127e+02  -3.8656636998279321e+00  -1.6859676751479222e+02  -1.9832384419162696e+02  -2.0048938671611673e+01  -1.8885492225304833e+02  -1.4204036149501644e+02  -8.8393787244639270e+01  -2.0127590106613607e+02  -8.5105538146423243e+01  -1.8076738468251961e+02  -1.2826503048071780e+02  -9.5456912205852518e+01  -2.4676260852502310e+02  -1.2675912779805826e+01  -1.8689217517336269e+02  -2.0819989851029300e+02  -1.0374810708433168e+01  -1.3107874207992091e+02  -2.5660404600997583e+02  -1.0290329550960166e+02  -6.3862636572950626e-01  -1.1992576265076899e+02  -2.5537242908425173e+02  -2.1320772002412176e+02  -9.4279152897340552e+01  -1.1456312090384108e+02  -5.1016871803362370e+01  -2.5468925107169589e+01  -1.2808312134776759e+02  -1.3700200224819531e+02  -2.5736186662788878e+01  -7.5921076418825848e+01  -1.7829068156388607e+02  -1.2588618269610987e+02  -3.9464029161006722e+00  -1.4533709182785068e+02  -2.0246608547064503e+02  -2.0467685805646692e+01  -1.6518120303211441e+02  -1.6280787221048200e+02  -9.0240001933679409e+01  -2.0547979974138627e+02  -5.8867934591803674e+01  -1.9837665044870732e+02  -1.3094400590133529e+02  -9.7450649084634634e+01  -2.2963382797927420e+02  -1.8244223516779088e+00  -1.9079565176178826e+02  -2.1254841352326045e+02  -1.4369838276871971e+00  -1.5389588267253239e+02  -2.6196354212138914e+02  -1.0505255940746666e+02  -5.3896143464352324e+00  -1.4309271353492096e+02  -2.6070620133734405e+02  -2.1766082964636118e+02  -8.4822660150980525e+01  -1.1722286063356296e+02  -7.2568850029726178e+01  -2.6000875429840836e+01  -1.3075829736885947e+02  -1.4628388292390426e+02  -5.0803988674012174e+01  -7.7506782958407058e+01  -1.8201450521125653e+02  -1.4461823732570483e+02  -3.6670371508208963e+00  -1.4837263858016189e+02  -2.0813166021060431e+02  -4.2601159032339176e+01  -1.6863121884088611e+02  -1.6620831803971745e+02  -6.3283556953737289e+01  -2.1753360912488827e+02  -6.0097464957507420e+01  -2.0251999465238259e+02  -1.0264837973642557e+02  -1.2094816857590931e+02  -2.3443001738953799e+02  -1.8625276919928204e+00  -2.0819989851029408e+02  -1.8689217517336141e+02  -1.4669970303486783e+00  -1.5711019046530160e+02  -2.4916523105596619e+02  -7.8397475237091271e+01  -5.5021831760421298e+00  -1.4608138364237584e+02  -2.6037175895064598e+02  -4.1532373084116294e+00  -6.6820951629610903e+01  -1.1967120654043111e+02  -7.4084541132776579e+01  -4.2749315160484205e+00  -1.1383986844739141e+02  -1.4933920459121200e+02  -5.1865093453833424e+01  -5.0803988674011954e+01  -1.7084978029741799e+02  -1.4763876990357554e+02  -3.7436278034463384e+00  -1.2273827308553629e+02  -2.1247874998142336e+02  -4.3490937466178245e+01  -1.4258192629263627e+02  -1.8411531291141938e+02  -6.4605313109510362e+01  -2.2207707034592150e+02  -3.6307004675337446e+01  -2.1649760771358837e+02  -1.0479231939986668e+02  -1.2347432219368956e+02  -2.1337636940887555e+02  -1.4369838276872040e+00  -2.1254841352326159e+02  -1.9079565176178698e+02  -1.0360747373908075e+00  -1.7841756291820403e+02  -2.5436935822273713e+02  -8.0034904460095348e+01  -1.5151992773210877e+01  -1.6822454261061114e+02  -7.7214238028079706e+01  -4.2399828588046411e+00  -6.8216590692940088e+01  -1.1722286063356307e+02  -9.2381835053583472e+01  -4.3642188020171275e+00  -1.1621755633561702e+02  -1.5372601790795909e+02  -7.5921076418826146e+01  -5.1865093453833204e+01  -1.7441819142490365e+02  -1.6274078643155525e+02  -2.2779131176136968e+01  -1.2530181527262226e+02  -2.1313165448898280e+02  -6.7090052253229672e+01  -1.4555992797033977e+02  -1.8796079126199083e+02  -3.9644737195640417e+01  -2.2961417257502583e+02  -3.7065321831283512e+01  -2.2101943075072847e+02  -7.7532484769737749e+01  -1.4644555935058338e+02  -2.1783300148423231e+02  -1.4669970303486852e+00  -2.2632074445831697e+02  -1.6321715392797597e+02  -1.0577144527909448e+00  -1.8214403664118962e+02  -2.3708509613391112e+02  -5.5824361299697046e+01  -1.5468461073734206e+01  -7.9674786060896238e+01  -7.8826953863593658e+01  -2.4416658655311217e+01  -4.7008113407159705e+01  -1.1967120654043123e+02  -9.4311345103926428e+01  -4.2742144004802975e+00  -9.5714413960261140e+01  -1.5693677786288490e+02  -7.7506782958407356e+01  -2.5209651591439268e+01  -1.5876672336671581e+02  -1.6613983109047840e+02  -2.3254901791831529e+01  -9.8222110152376501e+01  -2.1758317538748179e+02  -6.8491311819307313e+01  -1.1806380510788891e+02  -2.0223652357171247e+02  -4.0472767065558287e+01  -2.3440995145761372e+02  -1.6549314457347990e+01  -2.3073515473177937e+02  -7.9151847586080365e+01  -1.4950425783206677e+02  -1.9356664174026528e+02  -1.0162553089688974e+01  -2.3104773597975768e+02  -1.6662614811725285e+02  -7.8125833343426123e+00  -2.0101801571731690e+02  -2.4203691458947188e+02  -5.6990322834443191e+01  -2.1541727491562281e+01  -7.0596248503023261e+01  -8.7031157603134091e+01  -2.4926631078395150e+01  -4.7989936589327129e+01  -1.1221928100908589e+02  -1.0864594173083805e+02  -4.3634867085943743e+00  -9.7713529084916217e+01  -1.5623896970027607e+02  -9.9590677088825643e+01  -2.5736186662788658e+01  -1.6208276475318979e+02  -1.7698040009680614e+02  -4.7259220296651712e+01  -1.0027360164521139e+02  -2.1313165448898303e+02  -9.2572032038297365e+01  -1.2052971519081019e+02  -2.0646048604822860e+02  -1.8387450784849591e+01  -2.3705330583548240e+02  -1.6894967567109422e+01  -2.3555434672730721e+02  -5.3886065221204973e+01  -1.7096647652992880e+02  -1.9760952290226365e+02  -1.0374810708433232e+01  -2.4055808651981755e+02  -1.3808606135399410e+02  -7.9757588986081673e+00  -2.0521652813484559e+02  -2.2082775467037496e+02  -3.9226564770886711e+01  -3.6745309956073893e+00  -7.2070739358547868e+01  -8.8848912069591975e+01  -4.7008113407159655e+01  -2.4416658655311124e+01  -1.1456312090384118e+02  -1.1091514797010613e+02  -2.5629065144288340e+01  -7.4406486136910885e+01  -1.5950221579315843e+02  -1.0167075281206593e+02  -4.1496820737827687e+00  -1.4250653821576233e+02  -1.8067685687862297e+02  -4.8246288159948328e+01  -7.2734453003558841e+01  -2.1758317538748202e+02  -9.4505514590305140e+01  -9.2572032038297010e+01  -2.1647445279842165e+02  -1.8771495668445755e+01  -2.4200446031094054e+02  -2.5438498950869732e+00  -2.4054207507405840e+02  -5.5011543020573676e+01  -1.7453732500403498e+02  -1.7096647652992786e+02  -2.4348307513711180e+01  -2.4558244271886940e+02  -1.4097016127515570e+02  -1.9843832981120570e+01  -2.2082775467037550e+02  -5.7900422515556379e+01  -4.0045860587233655e+01  -3.7512781665442811e+00  -5.8503475608374032e+01  -9.2036433503722009e+01  -4.7989936589327080e+01  -2.4926631078395051e+01  -1.0240514961737803e+02  -1.2073306185573529e+02  -2.6164360191719638e+01  -7.5960558566069707e+01  -1.5372601790795935e+02  -1.2089850635681073e+02  -4.2363533686585155e+00  -1.4548296531928770e+02  -1.8678908425910004e+02  -7.2734453003559238e+01  -7.4253602931628166e+01  -2.0813166021060405e+02  -1.1806380510788941e+02  -9.4505514590304770e+01  -2.2099579221622795e+02  -2.8687646163345533e+00  -2.3956518297682484e+02  -2.5969813785251099e+00  -2.4556609685406031e+02  -3.2620477956480059e+01  -1.9356664174026633e+02  -1.7453732500403405e+02  -2.4856852337802376e+01  -2.5036481763392550e+02  -1.1246686439516247e+02  -2.0258296226543120e+01  -3.2774858590964222e+01  -5.9109745182702682e+01  -5.3476677723960997e+01  -3.8719167741447236e+00  -5.9725393792840457e+01  -9.3958729411138748e+01  -6.6820951629611045e+01  -4.1532373084116143e+00  -1.0454400911588222e+02  -1.2325472270090251e+02  -5.0739653235179802e+01  -5.0739653235179759e+01  -1.5693677786288515e+02  -1.2342362271709533e+02  -4.0270654265432508e+00  -1.2269544643520230e+02  -1.9069040766497571e+02  -7.4253602931628578e+01  -4.7259220296651563e+01  -2.1247874998142308e+02  -1.2052971519081071e+02  -6.7090052253229430e+01  -2.2628171179485184e+02  -2.9286823496863010e+00  -2.4456880114481123e+02  -2.1945917954481700e+00  -2.4554156324486243e+02  -3.3301797395821261e+01  -1.9760952290226473e+02  -1.4644555935058301e+02  -4.2422788660300924e+01  -2.5559399966518458e+02  -1.1481587537827572e+02  -3.2420508397114163e+00  -1.7855355434750468e+01  -5.5384085322389140e+01  -5.4593604953946034e+01  -3.9527865936873905e+00  -4.2235947031615112e+01  -9.2036433503722066e+01  -6.8216590692940230e+01  -4.2399828588046260e+00  -8.8159309876849804e+01  -1.2817688717410516e+02  -5.1799414288977978e+01  -5.1799414288977935e+01  -1.4628388292390446e+02  -1.3902232502182707e+02  -4.1111757195396708e+00  -1.2525809413418688e+02  -1.9178956347580834e+02  -9.8222110152377198e+01  -4.8246288159948172e+01  -1.9832384419162634e+02  -1.4258192629263667e+02  -6.8491311819307057e+01  -2.3100788807034721e+02  -2.5438498950869701e+00  -2.3705330583548289e+02  -2.2404285870994869e+00  -2.5067000558185521e+02  -1.4552496470398573e+01  -2.1337636940887631e+02  -1.4950425783206637e+02  -4.3308841606057491e+01  -2.5536419655108008e+02  -3.5511360854778310e+01  -1.7855355434750578e+01  -1.8228286842140392e+01  -5.6540851143252269e+01  -6.3296374985779188e+01  -2.2425888121633264e+01  -4.3118097556509809e+01  -9.3958729411138805e+01  -8.3087278526661777e+01  -4.2344758859356855e+00  -9.0000627213099037e+01  -1.3085402161163458e+02  -7.4406486136910843e+01  -2.5629065144288170e+01  -1.4933920459121219e+02  -1.4192597997949352e+02  -2.4634126911211506e+01  -1.0009709839469562e+02  -1.9579532813790686e+02  -1.0027360164521211e+02  -2.2779131176136957e+01  -2.0246608547064440e+02  -1.4555992797034017e+02  -4.2601159032339112e+01  -2.3128139276203669e+02  -2.5969813785251072e+00  -2.4200446031094103e+02  -1.4552496470398541e+01  -2.4554156324486240e+02  -1.4856443541605024e+01  -2.1783300148423305e+02  -1.2094816857590889e+02  -6.3695090040679908e+01  -2.3741379728230921e+01  -3.6253059995425460e+01  -1.8228286842140506e+01  -3.1757219195581450e+00  -4.7933210783957598e+01  -6.4618398862166771e+01  -2.2894280814779702e+01  -2.2425888121633200e+01  -8.7031157603133821e+01  -8.4822660150980568e+01  -4.3229182055227424e+00  -7.0032230901581087e+01  -1.3069045058723893e+02  -7.5960558566069679e+01  -2.6164360191719467e+01  -1.3419908665025000e+02  -1.5326347391824100e+02  -2.5148641430532720e+01  -1.0218775135965033e+02  -1.9178956347580893e+02  -1.2273827308553696e+02  -2.3254901791831518e+01  -1.8408526454708584e+02  -1.6518120303211484e+02  -4.3490937466178174e+01  -2.3611199362131629e+02  -1.6549314457348011e+01  -2.2961417257502654e+02  -1.4856443541604994e+01  -2.5067000558185518e+02  -2.1945917954481744e+00  -2.2963382797927466e+02  -1.2347432219368915e+02  -2.2512854151443973e+00  -2.4237248107204554e+01  -3.8028518560527530e+01  -3.2104319760454082e+01  -3.2420508397114163e+00  -4.8934355780689998e+01  -6.8303542684433097e+01  -4.2235947031615225e+01  -2.2894280814779634e+01  -8.8848912069591719e+01  -9.5177203853570148e+01  -2.5063489870360865e+01  -7.1494941544795310e+01  -1.3342008393718984e+02  -9.5714413960260984e+01  -4.2742144004802647e+00  -1.3700200224819534e+02  -1.5646457306402215e+02  -5.0101151364575863e+01  -7.5583441222826096e+01  -1.9579532813790749e+02  -1.2530181527262295e+02  -3.6670371508208945e+00  -1.8793011530002468e+02  -1.6863121884088656e+02  -2.0048938671611644e+01  -2.3128139276203726e+02  -1.6894967567109443e+01  -2.3440995145761443e+02  -3.2620477956479995e+01  -2.4054207507405818e+02  -2.2404285870994909e+00  -2.3443001738953845e+02  -1.1986205322903617e+01  -2.5545270209554958e+00  -1.3920881854194157e+01  -3.8822791684888294e+01  -3.2774858590964321e+01  -3.4417258922623852e+00  -3.5838615600500397e+01  -6.9730147514345816e+01  -4.3118097556509923e+01  -3.8719167741447000e+00  -7.7214238028079677e+01  -9.7165098673936996e+01  -2.5586972171545725e+01  -4.8725280252749855e+01  -1.2817688717410527e+02  -9.7713529084916061e+01  -4.3634867085943396e+00  -1.1793716175329095e+02  -1.6307344502304764e+02  -5.1147576509038856e+01  -7.7162095829485068e+01  -1.8678908425910026e+02  -1.4533709182785108e+02  -3.7436278034463366e+00  -1.6596355988769960e+02  -1.8499115093113141e+02  -2.0467685805646664e+01  -2.3611199362131686e+02  -3.6307004675337481e+01  -2.1753360912488861e+02  -3.3301797395821197e+01  -2.4556609685406002e+02  -1.8244223516779117e+00  -1.4454663441307137e+01  -1.9192077659862154e+01  -2.6078815095077887e+00  -1.4211636864978741e+01  -3.5511