<?xml version="1.0"?>
<VTKFile type="UnstructuredGrid"  version="0.1"  >
<UnstructuredGrid>
<Piece  NumberOfPoints="1089" NumberOfCells="2048">
<Points>
<DataArray  type="Float64"  NumberOfComponents="3"  format="ascii">0 0 0  0.03125 0 0  0.0625 0 0  0.09375 0 0  0.125 0 0  0.15625 0 0  0.1875 0 0  0.21875 0 0  0.25 0 0  0.28125 0 0  0.3125 0 0  0.34375 0 0  0.375 0 0  0.40625 0 0  0.4375 0 0  0.46875 0 0  0.5 0 0  0.53125 0 0  0.5625 0 0  0.59375 0 0  0.625 0 0  0.65625 0 0  0.6875 0 0  0.71875 0 0  0.75 0 0  0.78125 0 0  0.8125 0 0  0.84375 0 0  0.875 0 0  0.90625 0 0  0.9375 0 0  0.96875 0 0  1 0 0  0 0.03125 0  0.03125 0.03125 0  0.0625 0.03125 0  0.09375 0.03125 0  0.125 0.03125 0  0.15625 0.03125 0  0.1875 0.03125 0  0.21875 0.03125 0  0.25 0.03125 0  0.28125 0.03125 0  0.3125 0.03125 0  0.34375 0.03125 0  0.375 0.03125 0  0.40625 0.03125 0  0.4375 0.03125 0  0.46875 0.03125 0  0.5 0.03125 0  0.53125 0.03125 0  0.5625 0.03125 0  0.59375 0.03125 0  0.625 0.03125 0  0.65625 0.03125 0  0.6875 0.03125 0  0.71875 0.03125 0  0.75 0.03125 0  0.78125 0.03125 0  0.8125 0.03125 0  0.84375 0.03125 0  0.875 0.03125 0  0.90625 0.03125 0  0.9375 0.03125 0  0.96875 0.03125 0  1 0.03125 0  0 0.0625 0  0.03125 0.0625 0  0.0625 0.0625 0  0.09375 0.0625 0  0.125 0.0625 0  0.15625 0.0625 0  0.1875 0.0625 0  0.21875 0.0625 0  0.25 0.0625 0  0.28125 0.0625 0  0.3125 0.0625 0  0.34375 0.0625 0  0.375 0.0625 0  0.40625 0.0625 0  0.4375 0.0625 0  0.46875 0.0625 0  0.5 0.0625 0  0.53125 0.0625 0  0.5625 0.0625 0  0.59375 0.0625 0  0.625 0.0625 0  0.65625 0.0625 0  0.6875 0.0625 0  0.71875 0.0625 0  0.75 0.0625 0  0.78125 0.0625 0  0.8125 0.0625 0  0.84375 0.0625 0  0.875 0.0625 0  0.90625 0.0625 0  0.9375 0.0625 0  0.96875 0.0625 0  1 0.0625 0  0 0.09375 0  0.03125 0.09375 0  0.0625 0.09375 0  0.09375 0.09375 0  0.125 0.09375 0  0.15625 0.09375 0  0.1875 0.09375 0  0.21875 0.09375 0  0.25 0.09375 0  0.28125 0.09375 0  0.3125 0.09375 0  0.34375 0.09375 0  0.375 0.09375 0  0.40625 0.09375 0  0.4375 0.09375 0  0.46875 0.09375 0  0.5 0.09375 0  0.53125 0.09375 0  0.5625 0.09375 0  0.59375 0.09375 0  0.625 0.09375 0  0.65625 0.09375 0  0.6875 0.09375 0  0.71875 0.09375 0  0.75 0.09375 0  0.78125 0.09375 0  0.8125 0.09375 0  0.84375 0.09375 0  0.875 0.09375 0  0.90625 0.09375 0  0.9375 0.09375 0  0.96875 0.09375 0  1 0.09375 0  0 0.125 0  0.03125 0.125 0  0.0625 0.125 0  0.09375 0.125 0  0.125 0.125 0  0.15625 0.125 0  0.1875 0.125 0  0.21875 0.125 0  0.25 0.125 0  0.28125 0.125 0  0.3125 0.125 0  0.34375 0.125 0  0.375 0.125 0  0.40625 0.125 0  0.4375 0.125 0  0.46875 0.125 0  0.5 0.125 0  0.53125 0.125 0  0.5625 0.125 0  0.59375 0.125 0  0.625 0.125 0  0.65625 0.125 0  0.6875 0.125 0  0.71875 0.125 0  0.75 0.125 0  0.78125 0.125 0  0.8125 0.125 0  0.84375 0.125 0  0.875 0.125 0  0.90625 0.125 0  0.9375 0.125 0  0.96875 0.125 0  1 0.125 0  0 0.15625 0  0.03125 0.15625 0  0.0625 0.15625 0  0.09375 0.15625 0  0.125 0.15625 0  0.15625 0.15625 0  0.1875 0.15625 0  0.21875 0.15625 0  0.25 0.15625 0  0.28125 0.15625 0  0.3125 0.15625 0  0.34375 0.15625 0  0.375 0.15625 0  0.40625 0.15625 0  0.4375 0.15625 0  0.46875 0.15625 0  0.5 0.15625 0  0.53125 0.15625 0  0.5625 0.15625 0  0.59375 0.15625 0  0.625 0.15625 0  0.65625 0.15625 0  0.6875 0.15625 0  0.71875 0.15625 0  0.75 0.15625 0  0.78125 0.15625 0  0.8125 0.15625 0  0.84375 0.15625 0  0.875 0.15625 0  0.90625 0.15625 0  0.9375 0.15625 0  0.96875 0.15625 0  1 0.15625 0  0 0.1875 0  0.03125 0.1875 0  0.0625 0.1875 0  0.09375 0.1875 0  0.125 0.1875 0  0.15625 0.1875 0  0.1875 0.1875 0  0.21875 0.1875 0  0.25 0.1875 0  0.28125 0.1875 0  0.3125 0.1875 0  0.34375 0.1875 0  0.375 0.1875 0  0.40625 0.1875 0  0.4375 0.1875 0  0.46875 0.1875 0  0.5 0.1875 0  0.53125 0.1875 0  0.5625 0.1875 0  0.59375 0.1875 0  0.625 0.1875 0  0.65625 0.1875 0  0.6875 0.1875 0  0.71875 0.1875 0  0.75 0.1875 0  0.78125 0.1875 0  0.8125 0.1875 0  0.84375 0.1875 0  0.875 0.1875 0  0.90625 0.1875 0  0.9375 0.1875 0  0.96875 0.1875 0  1 0.1875 0  0 0.21875 0  0.03125 0.21875 0  0.0625 0.21875 0  0.09375 0.21875 0  0.125 0.21875 0  0.15625 0.21875 0  0.1875 0.21875 0  0.21875 0.21875 0  0.25 0.21875 0  0.28125 0.21875 0  0.3125 0.21875 0  0.34375 0.21875 0  0.375 0.21875 0  0.40625 0.21875 0  0.4375 0.21875 0  0.46875 0.21875 0  0.5 0.21875 0  0.53125 0.21875 0  0.5625 0.21875 0  0.59375 0.21875 0  0.625 0.21875 0  0.65625 0.21875 0  0.6875 0.21875 0  0.71875 0.21875 0  0.75 0.21875 0  0.78125 0.21875 0  0.8125 0.21875 0  0.84375 0.21875 0  0.875 0.21875 0  0.90625 0.21875 0  0.9375 0.21875 0  0.96875 0.21875 0  1 0.21875 0  0 0.25 0  0.03125 0.25 0  0.0625 0.25 0  0.09375 0.25 0  0.125 0.25 0  0.15625 0.25 0  0.1875 0.25 0  0.21875 0.25 0  0.25 0.25 0  0.28125 0.25 0  0.3125 0.25 0  0.34375 0.25 0  0.375 0.25 0  0.40625 0.25 0  0.4375 0.25 0  0.46875 0.25 0  0.5 0.25 0  0.53125 0.25 0  0.5625 0.25 0  0.59375 0.25 0  0.625 0.25 0  0.65625 0.25 0  0.6875 0.25 0  0.71875 0.25 0  0.75 0.25 0  0.78125 0.25 0  0.8125 0.25 0  0.84375 0.25 0  0.875 0.25 0  0.90625 0.25 0  0.9375 0.25 0  0.96875 0.25 0  1 0.25 0  0 0.28125 0  0.03125 0.28125 0  0.0625 0.28125 0  0.09375 0.28125 0  0.125 0.28125 0  0.15625 0.28125 0  0.1875 0.28125 0  0.21875 0.28125 0  0.25 0.28125 0  0.28125 0.28125 0  0.3125 0.28125 0  0.34375 0.28125 0  0.375 0.28125 0  0.40625 0.28125 0  0.4375 0.28125 0  0.46875 0.28125 0  0.5 0.28125 0  0.53125 0.28125 0  0.5625 0.28125 0  0.59375 0.28125 0  0.625 0.28125 0  0.65625 0.28125 0  0.6875 0.28125 0  0.71875 0.28125 0  0.75 0.28125 0  0.78125 0.28125 0  0.8125 0.28125 0  0.84375 0.28125 0  0.875 0.28125 0  0.90625 0.28125 0  0.9375 0.28125 0  0.96875 0.28125 0  1 0.28125 0  0 0.3125 0  0.03125 0.3125 0  0.0625 0.3125 0  0.09375 0.3125 0  0.125 0.3125 0  0.15625 0.3125 0  0.1875 0.3125 0  0.21875 0.3125 0  0.25 0.3125 0  0.28125 0.3125 0  0.3125 0.3125 0  0.34375 0.3125 0  0.375 0.3125 0  0.40625 0.3125 0  0.4375 0.3125 0  0.46875 0.3125 0  0.5 0.3125 0  0.53125 0.3125 0  0.5625 0.3125 0  0.59375 0.3125 0  0.625 0.3125 0  0.65625 0.3125 0  0.6875 0.3125 0  0.71875 0.3125 0  0.75 0.3125 0  0.78125 0.3125 0  0.8125 0.3125 0  0.84375 0.3125 0  0.875 0.3125 0  0.90625 0.3125 0  0.9375 0.3125 0  0.96875 0.3125 0  1 0.3125 0  0 0.34375 0  0.03125 0.34375 0  0.0625 0.34375 0  0.09375 0.34375 0  0.125 0.34375 0  0.15625 0.34375 0  0.1875 0.34375 0  0.21875 0.34375 0  0.25 0.34375 0  0.28125 0.34375 0  0.3125 0.34375 0  0.34375 0.34375 0  0.375 0.34375 0  0.40625 0.34375 0  0.4375 0.34375 0  0.46875 0.34375 0  0.5 0.34375 0  0.53125 0.34375 0  0.5625 0.34375 0  0.59375 0.34375 0  0.625 0.34375 0  0.65625 0.34375 0  0.6875 0.34375 0  0.71875 0.34375 0  0.75 0.34375 0  0.78125 0.34375 0  0.8125 0.34375 0  0.84375 0.34375 0  0.875 0.34375 0  0.90625 0.34375 0  0.9375 0.34375 0  0.96875 0.34375 0  1 0.34375 0  0 0.375 0  0.03125 0.375 0  0.0625 0.375 0  0.09375 0.375 0  0.125 0.375 0  0.15625 0.375 0  0.1875 0.375 0  0.21875 0.375 0  0.25 0.375 0  0.28125 0.375 0  0.3125 0.375 0  0.34375 0.375 0  0.375 0.375 0  0.40625 0.375 0  0.4375 0.375 0  0.46875 0.375 0  0.5 0.375 0  0.53125 0.375 0  0.5625 0.375 0  0.59375 0.375 0  0.625 0.375 0  0.65625 0.375 0  0.6875 0.375 0  0.71875 0.375 0  0.75 0.375 0  0.78125 0.375 0  0.8125 0.375 0  0.84375 0.375 0  0.875 0.375 0  0.90625 0.375 0  0.9375 0.375 0  0.96875 0.375 0  1 0.375 0  0 0.40625 0  0.03125 0.40625 0  0.0625 0.40625 0  0.09375 0.40625 0  0.125 0.40625 0  0.15625 0.40625 0  0.1875 0.40625 0  0.21875 0.40625 0  0.25 0.40625 0  0.28125 0.40625 0  0.3125 0.40625 0  0.34375 0.40625 0  0.375 0.40625 0  0.40625 0.40625 0  0.4375 0.40625 0  0.46875 0.40625 0  0.5 0.40625 0  0.53125 0.40625 0  0.5625 0.40625 0  0.59375 0.40625 0  0.625 0.40625 0  0.65625 0.40625 0  0.6875 0.40625 0  0.71875 0.40625 0  0.75 0.40625 0  0.78125 0.40625 0  0.8125 0.40625 0  0.84375 0.40625 0  0.875 0.40625 0  0.90625 0.40625 0  0.9375 0.40625 0  0.96875 0.40625 0  1 0.40625 0  0 0.4375 0  0.03125 0.4375 0  0.0625 0.4375 0  0.09375 0.4375 0  0.125 0.4375 0  0.15625 0.4375 0  0.1875 0.4375 0  0.21875 0.4375 0  0.25 0.4375 0  0.28125 0.4375 0  0.3125 0.4375 0  0.34375 0.4375 0  0.375 0.4375 0  0.40625 0.4375 0  0.4375 0.4375 0  0.46875 0.4375 0  0.5 0.4375 0  0.53125 0.4375 0  0.5625 0.4375 0  0.59375 0.4375 0  0.625 0.4375 0  0.65625 0.4375 0  0.6875 0.4375 0  0.71875 0.4375 0  0.75 0.4375 0  0.78125 0.4375 0  0.8125 0.4375 0  0.84375 0.4375 0  0.875 0.4375 0  0.90625 0.4375 0  0.9375 0.4375 0  0.96875 0.4375 0  1 0.4375 0  0 0.46875 0  0.03125 0.46875 0  0.0625 0.46875 0  0.09375 0.46875 0  0.125 0.46875 0  0.15625 0.46875 0  0.1875 0.46875 0  0.21875 0.46875 0  0.25 0.46875 0  0.28125 0.46875 0  0.3125 0.46875 0  0.34375 0.46875 0  0.375 0.46875 0  0.40625 0.46875 0  0.4375 0.46875 0  0.46875 0.46875 0  0.5 0.46875 0  0.53125 0.46875 0  0.5625 0.46875 0  0.59375 0.46875 0  0.625 0.46875 0  0.65625 0.46875 0  0.6875 0.46875 0  0.71875 0.46875 0  0.75 0.46875 0  0.78125 0.46875 0  0.8125 0.46875 0  0.84375 0.46875 0  0.875 0.46875 0  0.90625 0.46875 0  0.9375 0.46875 0  0.96875 0.46875 0  1 0.46875 0  0 0.5 0  0.03125 0.5 0  0.0625 0.5 0  0.09375 0.5 0  0.125 0.5 0  0.15625 0.5 0  0.1875 0.5 0  0.21875 0.5 0  0.25 0.5 0  0.28125 0.5 0  0.3125 0.5 0  0.34375 0.5 0  0.375 0.5 0  0.40625 0.5 0  0.4375 0.5 0  0.46875 0.5 0  0.5 0.5 0  0.53125 0.5 0  0.5625 0.5 0  0.59375 0.5 0  0.625 0.5 0  0.65625 0.5 0  0.6875 0.5 0  0.71875 0.5 0  0.75 0.5 0  0.78125 0.5 0  0.8125 0.5 0  0.84375 0.5 0  0.875 0.5 0  0.90625 0.5 0  0.9375 0.5 0  0.96875 0.5 0  1 0.5 0  0 0.53125 0  0.03125 0.53125 0  0.0625 0.53125 0  0.09375 0.53125 0  0.125 0.53125 0  0.15625 0.53125 0  0.1875 0.53125 0  0.21875 0.53125 0  0.25 0.53125 0  0.28125 0.53125 0  0.3125 0.53125 0  0.34375 0.53125 0  0.375 0.53125 0  0.40625 0.53125 0  0.4375 0.53125 0  0.46875 0.53125 0  0.5 0.53125 0  0.53125 0.53125 0  0.5625 0.53125 0  0.59375 0.53125 0  0.625 0.53125 0  0.65625 0.53125 0  0.6875 0.53125 0  0.71875 0.53125 0  0.75 0.53125 0  0.78125 0.531
[...]
<PointData  Scalars="theta"> 
<DataArray  type="Float64"  Name="theta"  format="ascii">1.4609444510292038e-03  1.8934992056419755e-02  2.3133486599201209e-03  1.2498505318584574e-02  2.3328678536987954e-03  1.2239617785173361e-03  2.5620527497373612e-02  1.8698328423051361e-02  3.0607263878964074e-03  2.2387453035815606e-02  9.1320178219663848e-03  1.0555951487080000e-03  5.0409807706858505e-04  0.0000000000000000e+00  4.4006999031790332e-02  4.9259107317845711e-02  0.0000000000000000e+00  7.4439846310181221e-03  1.5366045894097381e-02  1.8364459385598310e-02  1.4255435507033265e-02  1.4384119402964018e-03  1.6739481588282593e-03  3.1462633354846030e-03  1.4640961238933685e-03  1.7888790847681506e-02  1.0317882056830485e-02  1.5772494946218096e-03  2.8614086687828732e-02  2.0507221977127767e-02  1.3142177212129279e-02  5.6878204371039560e-03  0.0000000000000000e+00  2.7331001423179201e-03  1.3455495999471158e-03  1.7744087624504551e-02  0.0000000000000000e+00  1.1345155812258392e-02  2.1788923794282345e-03  1.0555951487079989e-03  2.3929504636299285e-02  1.6972865473190941e-02  0.0000000000000000e+00  2.0979408239165852e-02  8.4107119325450477e-03  8.7108657484331604e-04  2.5588913238130408e-04  3.3705305080377210e-02  4.1041270249862358e-02  4.5939427367865937e-02  4.9259107317845725e-02  3.7786987400704312e-03  1.2680198751535855e-02  1.6913915489482845e-02  1.3358848844962213e-02  0.0000000000000000e+00  1.5194779055148950e-03  2.9386015990972535e-03  1.2626969181146982e-03  1.6708083140414057e-02  9.3657582729663163e-03  0.0000000000000000e+00  2.6814421678717323e-02  1.8887428819016325e-02  1.0845042389318828e-02  2.8872386208153690e-03  1.6354240990862200e-02  1.8610978599749345e-03  1.2213836355154471e-03  1.6644397141931513e-02  3.0156807340633855e-02  1.0083772247745823e-02  2.0384814293460409e-03  8.7108657484331507e-04  2.2387453035815588e-02  1.5085778693172175e-02  3.7261204502524375e-02  1.9679208642610416e-02  7.6345798905137121e-03  6.7090693180606165e-04  0.0000000000000000e+00  3.1433830188205468e-02  3.8287593890825290e-02  4.2857107685252867e-02  4.5939427367865951e-02  0.0000000000000000e+00  9.7662316063293550e-03  1.5353116371301009e-02  1.2530933696896267e-02  3.3357700892572770e-03  1.3505384490302566e-03  2.7492338972603353e-03  1.0419888105889772e-03  1.5631390298699022e-02  8.3244492111769191e-03  3.7638035434473999e-02  2.5152596909825662e-02  1.7144515874714730e-02  8.3528024938661540e-03  9.1674111608745796e-03  1.5300350244774641e-02  9.4472631087004467e-04  1.0855870656579273e-03  1.5606067358931908e-02  2.8124473542172252e-02  8.6966613273586624e-03  1.9102724202610874e-03  6.7090693180606100e-04  2.0979408239165838e-02  1.3010598110576121e-02  3.4750089700930846e-02  1.8451557784171794e-02  6.7857476880113154e-03  4.5685243496700539e-04  1.8751134453499831e-02  2.9324767906841562e-02  3.5760511004981017e-02  4.0028424752681861e-02  4.2857107685252874e-02  4.4006999031790374e-02  6.6502915356567525e-03  1.3646117456937678e-02  1.1749214686268840e-02  3.1109651813730076e-03  1.1647600929719486e-03  2.5763225581447325e-03  8.0253505917508004e-04  1.4648263824272775e-02  7.1793485362174015e-03  3.5101525164764218e-02  2.3583498896328908e-02  1.5238344562151234e-02  1.1485484481866223e-02  8.1481548404843535e-03  1.4338044326606630e-02  0.0000000000000000e+00  9.3625508583839237e-04  1.4593929634355372e-02  2.6237453539332475e-02  7.1765628493966676e-03  1.7918832168183694e-03  4.5685243496700490e-04  1.9679208642610403e-02  1.0736462135768794e-02  3.2418521991128012e-02  1.7254874642862947e-02  5.8523088429266734e-03  2.3190640577287476e-04  1.7487454121596881e-02  2.7389255340550679e-02  3.3456052385068942e-02  3.7448935649464880e-02  4.0028424752681875e-02  4.1041270249862406e-02  3.3758060356782662e-03  1.1768974847966561e-02  1.0987214680462426e-02  2.9022340377807100e-03  9.6117046496751069e-04  2.4166548729312419e-03  5.4648428649192932e-04  1.3740437135481752e-02  5.9244627390286856e-03  3.2746377786920078e-02  2.2053981666812272e-02  8.7632879036494700e-04  1.0714862449525296e-02  7.0273049955497909e-03  1.3449443502583144e-02  2.3137342662950312e-03  7.7260608567669817e-04  1.3570381940630649e-02  2.4505711920978408e-02  5.5273561793420297e-03  1.6800999124538993e-03  2.3190640577287454e-04  1.8451557784171780e-02  8.2691744747142339e-03  3.0278813438489587e-02  1.6044701126290990e-02  4.8293776938533699e-03  0.0000000000000000e+00  1.6314128132873414e-02  2.5624252442417780e-02  3.1351854984771790e-02  3.5093608364268884e-02  3.7448935649464887e-02  3.8287593890825332e-02  0.0000000000000000e+00  9.7118634945225508e-03  1.0216624542753952e-02  2.7106788831657890e-03  7.4028913568085900e-04  2.2658963499040488e-03  2.7740512470038640e-04  1.2883265500634015e-02  4.5629943493917576e-03  3.0585029880998361e-02  8.0481874408240926e-03  7.7889630450334621e-04  1.0007653069965429e-02  5.7989950469600898e-03  1.2610424964728069e-02  2.1578066080076034e-03  5.9505770540578106e-04  1.2498505318584581e-02  2.2926528696624739e-02  3.7638396769349267e-03  1.5711363623588091e-03  0.0000000000000000e+00  1.7254874642862933e-02  5.6308741419178656e-03  2.8327603272076757e-02  1.4777386755905014e-02  3.7195648109932065e-03  3.3357700892572735e-03  1.5237352346972332e-02  2.4012631180192690e-02  2.9408822619999730e-02  3.2918680696303777e-02  3.5093608364268891e-02  3.5760511004981066e-02  3.3705305080377217e-02  7.4800332451472147e-03  9.4096493926432434e-03  2.5359988480495414e-03  5.0409807706858537e-04  2.1189407381556752e-03  0.0000000000000000e+00  1.2047716176834379e-02  3.1071598465208712e-03  3.3625144507534533e-03  7.5295506987458870e-03  6.7175231678909416e-04  9.3627455523139311e-03  4.4663597016339615e-03  1.1792570822733864e-02  2.0130279252897013e-03  4.0520308968740011e-04  1.1345155812258399e-02  2.1484579074893342e-02  1.9105918335454559e-03  1.4609444510292023e-03  1.6760495924546433e-02  1.6044701126290976e-02  2.8583316705007864e-03  2.6545956457452714e-02  1.3413744361452345e-02  2.5328285643813385e-03  3.1109651813730041e-03  1.4255435507033244e-02  2.2524447480404865e-02  2.7574207875535963e-02  3.0865109978628635e-02  3.2918680696303784e-02  3.3456052385068991e-02  3.1433830188205475e-02  5.0935103509520494e-03  8.5413364060039285e-03  2.3764987934165589e-03  2.5588913238130430e-04  1.9703284753849293e-03  2.0561020464189082e-02  1.1202747589455444e-02  5.3962990065623603e-03  2.2896959944997525e-03  7.0559843370200312e-03  5.5433603071317289e-04  8.7738815517417919e-03  3.0413567193844681e-03  1.0965496897402591e-02  1.8801627357656033e-03  2.0568828125925470e-04  1.0083772247745832e-02  2.0153071497230116e-02  0.0000000000000000e+00  1.3455495999471145e-03  1.5630969116165207e-02  1.4777386755905000e-02  0.0000000000000000e+00  2.4900769830514254e-02  1.1922369808638601e-02  1.2857087406067300e-03  2.9022340377807066e-03  1.3358848844962194e-02  2.1119301684790866e-02  2.5785871623086550e-02  2.8863340957383566e-02  3.0865109978628642e-02  3.1351854984771832e-02  2.9324767906841569e-02  2.5855562712312850e-03  7.5916886850034776e-03  2.2292151933650472e-03  0.0000000000000000e+00  1.8146991762424001e-03  1.9175367919865273e-02  1.4625871128577383e-03  4.9700643746993893e-03  1.1622903321842530e-03  6.6186894484460109e-03  4.2694709836645268e-04  8.2301199201575918e-03  1.5438466591878234e-03  1.0099370960427061e-02  1.7590023523843643e-03  0.0000000000000000e+00  8.6966613273586693e-03  1.8895859585254186e-02  1.4608326070374985e-02  1.2213836355154455e-03  1.4582204546697064e-02  1.3413744361452333e-02  3.9899621531919546e-02  2.3347381581353521e-02  1.0282343739807692e-02  0.0000000000000000e+00  2.7106788831657859e-03  1.2530933696896248e-02  1.9749600948515654e-02  2.3977375207675553e-02  2.6839005715929926e-02  2.8863340957383573e-02  2.9408822619999771e-02  2.7389255340550686e-02  0.0000000000000000e+00  6.5473856186086549e-03  2.0901497464012203e-03  3.6162525112764113e-03  1.6472405605359643e-03  1.5154589797236012e-03  1.3705986150767849e-03  4.5114318304986531e-03  0.0000000000000000e+00  6.2057948076762702e-03  2.9072858282405537e-04  7.7166991841653310e-03  0.0000000000000000e+00  9.1674111608745952e-03  1.6483710042981324e-03  1.4608326070374975e-02  7.1765628493966728e-03  1.7670361073382723e-02  1.3623838737998547e-02  1.0855870656579262e-03  1.3619740317346028e-02  1.1922369808638589e-02  3.7210697984104681e-02  2.1833177834498195e-02  8.4850821838594291e-03  3.0231313252162017e-03  2.5359988480495388e-03  1.1749214686268820e-02  1.8364459385598306e-02  2.2083486881202995e-02  2.4719087285356319e-02  2.6839005715929933e-02  2.7574207875536001e-02  2.5624252442417787e-02  1.8751134453499855e-02  5.4029612770320366e-03  1.9545922507368195e-03  3.3725452739875373e-03  1.5162255176643827e-03  1.4133288546780208e-03  1.2856557155418297e-03  4.0098392514649542e-03  1.5151613861255178e-02  5.8033155096335488e-03  1.4757898948932499e-04  7.2162295800127785e-03  2.2762869509929107e-02  8.1481548404843673e-03  1.5462131507338450e-03  1.3623838737998537e-02  5.5273561793420340e-03  1.6431047346573538e-02  1.2709743184333615e-02  9.3625508583839139e-04  1.2742064716712123e-02  1.0282343739807683e-02  3.4714035022206192e-02  2.0301904258491987e-02  6.5351718399739595e-03  2.8193958335898600e-03  2.3764987934165559e-03  1.0987214680462411e-02  1.6913915489482841e-02  2.0045644911849771e-02  2.2438034760219008e-02  2.4719087285356330e-02  2.5785871623086591e-02  2.4012631180192694e-02  1.7487454121596902e-02  4.1613362870304132e-03  1.8175065965957819e-03  2.1316296670985634e-03  7.6966298793626465e-04  1.3185011305121281e-03  1.2054524730484321e-03  3.4582508500165285e-03  1.4130513165692589e-02  5.3962990065623594e-03  0.0000000000000000e+00  6.7101181125007970e-03  2.1228829499245813e-02  7.0273049955498030e-03  1.4497555168777056e-03  1.2709743184333605e-02  3.7638396769349297e-03  1.5133216850455180e-02  1.1870866378019030e-02  7.7260608567669741e-04  1.1940660559917774e-02  8.4850821838594204e-03  3.2422816512801850e-02  1.8698328423051365e-02  4.4501092871148847e-03  2.6302276229945741e-03  2.2292151933650450e-03  1.0216624542753936e-02  1.5353116371301006e-02  1.7816918621062147e-02  1.9943316420967933e-02  2.2438034760219015e-02  2.3977375207675594e-02  2.2524447480404868e-02  1.6314128132873435e-02  2.8336517709373660e-03  5.2915701468833935e-04  1.6417715081386867e-03  0.0000000000000000e+00  1.2314765540557334e-03  1.1272723719957412e-03  2.8537795873512370e-03  1.3182422139061652e-02  4.9700643746993884e-03  2.3137342662950338e-03  6.1801095418191629e-03  1.9804474805392300e-02  5.7989950469601002e-03  1.3557310444531994e-03  1.1870866378019021e-02  1.9105918335454574e-03  1.3736738812585600e-02  1.1105890722418358e-02  5.9505770540578052e-04  1.1200637682931813e-02  6.5351718399739526e-03  3.0333443713169692e-02  1.6972865473190945e-02  2.2589544699391523e-03  2.4566256141846867e-03  2.0901497464012185e-03  9.4096493926432295e-03  1.3646117456937674e-02  1.5366045894097357e-02  1.7199939109719627e-02  1.9943316420967940e-02  2.2083486881203030e-02  2.1119301684790870e-02  1.5237352346972351e-02  3.8150349189381615e-04  4.3666510976613627e-04  1.1179602946320834e-03  7.3978828356124939e-03  1.1521184386244950e-03  1.0482109358052000e-03  2.1979681036238836e-03  1.2312347266334275e-02  4.5114318304986523e-03  2.1578066080076056e-03  5.6098152460284361e-03  1.8497326868999422e-02  4.4663597016339693e-03  1.2606466210916929e-03  1.1105890722418351e-02  0.0000000000000000e+00  1.2209452907047370e-02  1.0407392701279248e-02  4.0520308968739974e-04  1.0501906716853329e-02  4.4501092871148812e-03  2.8425640823914373e-02  1.5085778693172179e-02  0.0000000000000000e+00  2.2983171361062788e-03  1.9545922507368178e-03  8.5413364060039163e-03  1.1768974847966558e-02  1.2680198751535835e-02  1.4193543864745230e-02  1.7199939109719634e-02  2.0045644911849802e-02  1.9749600948515657e-02  1.3892425365513450e-03  3.1482009978095926e-04  3.3631748838816762e-04  5.6749649094818728e-04  6.8993231852473892e-03  1.0796566730974296e-03  9.6541644984466605e-04  1.4967010065274598e-03  1.1518921949081320e-02  4.0098392514649533e-03  2.0130279252897031e-03  4.9861015775350898e-03  1.7305332595129577e-02  3.0413567193844733e-03  1.1610725893716426e-03  1.0407392701279241e-02  3.0156807340633834e-02  1.0529936051328606e-02  9.7623941561756095e-03  2.0568828125925451e-04  9.8208013670146709e-03  2.2589544699391506e-03  2.6663960689291440e-02  1.3010598110576126e-02  1.6760495924546426e-02  2.1537659234530031e-03  1.8175065965957799e-03  7.5916886850034664e-03  9.7118634945225456e-03  9.7662316063293411e-03  1.0931803153393579e-02  1.4193543864745237e-02  1.7816918621062175e-02  7.2860592036719349e-04  1.0699883050083552e-03  2.4247301395147002e-04  2.2901457148237760e-04  0.0000000000000000e+00  6.4364110231016330e-03  1.0127449111079275e-03  8.7632879036494700e-04  7.5975199949518684e-04  1.0794446588374987e-02  3.4582508500165272e-03  1.8801627357656050e-03  4.3002197687799712e-03  1.6216924571408272e-02  1.5438466591878263e-03  1.0539299780251926e-03  9.7623941561756043e-03  2.8124473542172231e-02  8.6893975777528817e-03  9.1533853396170463e-03  0.0000000000000000e+00  9.1320178219663900e-03  0.0000000000000000e+00  2.5000579055199458e-02  1.0736462135768799e-02  1.5630969116165200e-02  2.0202862012022780e-03  1.6739481588282578e-03  6.5473856186086454e-03  7.4800332451472112e-03  6.6502915356567438e-03  7.4439846310181195e-03  1.0931803153393583e-02  4.8214066797282670e-03  3.6985329897474759e-04  7.2860592036719414e-04  1.6511140604750699e-04  1.1625186182039060e-04  1.0033324784346157e-02  6.0115908009398759e-03  9.4956670195936747e-04  7.7889630450334621e-04  0.0000000000000000e+00  1.0125460364395468e-02  2.8537795873512361e-03  1.7590023523843660e-03  3.5485798831539025e-03  1.5211880075169739e-02  0.0000000000000000e+00  9.3675133593094765e-04  9.1533853396170428e-03  2.6237453539332461e-02  6.6925346303056306e-03  8.5597388816892710e-03  3.0231313252161987e-03  8.4107119325450529e-03  3.7261204502524362e-02  2.3379156526637645e-02  8.2691744747142356e-03  1.4582204546697055e-02  1.8942544011314448e-03  1.5194779055148937e-03  5.4029612770320297e-03  5.0935103509520477e-03  3.3758060356782614e-03  3.7786987400704299e-03  8.3063664509743548e-04  4.4964814434239140e-03  0.0000000000000000e+00  3.6985329897474786e-04  8.3813480673137800e-05  0.0000000000000000e+00  9.3571568850110750e-03  5.6241952673950569e-03  8.8798217467583429e-04  6.7175231678909416e-04  1.5151613861255192e-02  9.4938023371757604e-03  2.1979681036238827e-03  1.6483710042981344e-03  2.7331001423179214e-03  1.4262915207125618e-02  1.2315449823944582e-02  8.0789301031301732e-04  8.5597388816892675e-03  2.4505711920978394e-02  4.5572650944676225e-03  7.9594001647878259e-03  2.8193958335898574e-03  7.6345798905137173e-03  3.4750089700930839e-02  2.1739455476706811e-02  5.6308741419178673e-03  1.3619740317346019e-02  1.7714017762366177e-03  1.3505384490302556e-03  4.1613362870304080e-03  2.5855562712312841e-03  0.0000000000000000e+00  3.5929612006286649e-04  7.7839427504466702e-04  4.1947886699248574e-03  4.8214066797282714e-03  0.0000000000000000e+00  0.0000000000000000e+00  7.3978828356125017e-03  8.7293356322772526e-03  5.2704650387295311e-03  8.2570339646256244e-04  5.5433603071317289e-04  1.4130513165692601e-02  8.8780779990625530e-03  1.4967010065274591e-03  1.5462131507338467e-03  1.8610978599749354e-03  1.3337888151202657e-02  1.1485484481866216e-02  6.6668055082933397e-04  7.9594001647878224e-03  2.2926528696624725e-02  2.3133486599201227e-03  7.3307152096059947e-03  2.6302276229945715e-03  6.7857476880113206e-03  3.2418521991128005e-02  2.0022332539162541e-02  2.8583316705007872e-03  1.2742064716712116e-02  1.6471642166379584e-03  1.1647600929719476e-03  2.8336517709373625e-03  0.0000000000000000e+00  4.8834857014951765e-04  3.3091658637161755e-04  7.3015326124501476e-04  3.9179214766578308e-03  4.4964814434239175e-03  1.0925923242781006e-03  1.5154589797236012e-03  6.8993231852473962e-03  8.1531762960698004e-03  4.9438277742797814e-03  7.6048399650136076e-04  4.2694709836645268e-04  1.3182422139061664e-02  8.2554125149658809e-03  7.5975199949518662e-04  1.4497555168777071e-03  9.4472631087004510e-04  1.2402433136798320e-02  1.0714862449525289e-02  5.1347433856633229e-04  7.3307152096059921e-03  2.1484579074893328e-02  0.0000000000000000e+00  6.6542441794704985e-03  2.4566256141846845e-03  5.8523088429266769e-03  3.0278813438489576e-02  1.8174691820459631e-02  0.0000000000000000e+00  1.1940660559917767e-02  1.5170605228576931e-03  9.6117046496750993e-04  1.4384119402964001e-03  1.7881609940297431e-03  3.3253976491921951e-04  3.0037993644441868e-04  6.8460400699206026e-04  3.6654449972874665e-03  4.1947886699248609e-03  1.0189601163494402e-03  1.4133288546780208e-03  6.4364110231016399e-03  7.6277739215756596e-03  4.6354162664142794e-03  6.9030729780206895e-04  2.9072858282405537e-04  1.2312347266334287e-02  7.6033465879454618e-03  0.0000000000000000e+00  1.3557310444532007e-03  0.0000000000000000e+00  1.1422808672727724e-02  1.0007653069965421e-02  3.4964909549468144e-04  6.6542441794704959e-03  2.0153071497230099e-02  2.4906470360074554e-02  5.9144082194241589e-03  2.2983171361062767e-03  4.8293776938533725e-03  2.8327603272076746e-02  1.6153982900125707e-02  2.9447724816185260e-02  1.1200637682931806e-02  1.3770677028759988e-03  7.4028913568085835e-04  3.0037993644441835e-04  1.6729293348426465e-03  1.6880308772906615e-04  2.6698292355095752e-04  6.4020374099703087e-04  3.4349091365274368e-03  3.9179214766578343e-03  9.5059268117721803e-04  1.3185011305121281e-03  6.0115908009398828e-03  7.1480298719460312e-03  4.3347844951648496e-03  6.1355715930068509e-04  1.4757898948932499e-04  1.1518921949081331e-02  6.9017174082871332e-03  1.9238393376071004e-03  1.2606466210916942e-03  2.0125581185075663e-02  1.0368723371507009e-02  9.3627455523139242e-03  1.7748808764423985e-04  5.9144082194241563e-03  1.8895859585254172e-02  2.3227968357478358e-02  5.1008297264524645e-03  2.1537659234530009e-03  3.7195648109932086e-03  2.6545956457452703e-02  1.3931861501705500e-02  2.7463177653890329e-02  1.0501906716853322e-02  1.2239617785173376e-03  6.1499513752058424e-04  2.6698292355095725e-04  1.5677114951303988e-03  0.0000000000000000e+00  2.3025709122196871e-04  5.9530294463654512e-04  3.2220305165680816e-03  3.6654449972874700e-03  8.8785103951486755e-04  1.2314765540557334e-03  5.6241952673950621e-03  6.7050304579625627e-03  4.0307636602024194e-03  5.2915701468833935e-04  0.0000000000000000e+00  1.0794446588374996e-02  6.1343667389982042e-03  1.7941875590064976e-03  1.1610725893716437e-03  1.8769273854723743e-02  9.2159020738334652e-03  8.7738815517417849e-03  0.0000000000000000e+00  5.1008297264524627e-03  1.7670361073382705e-02  2.1669480841252812e-02  4.2092503936881458e-03  2.0202862012022758e-03  2.5328285643813394e-03  2.4900769830514247e-02  1.1496696940646072e-02  2.5620527497373632e-02  9.8208013670146657e-03  1.0039957401439235e-04  5.7373185398176981e-04  2.3025709122196844e-04  1.4705525176107873e-03  6.5943598374650482e-04  1.9001021477923889e-04  5.4828206400233032e-04  3.0210301307590942e-03  3.4349091365274403e-03  8.3063664509743461e-04  1.1521184386244950e-03  5.2704650387295354e-03  6.2867495937741656e-03  3.7123878506441048e-03  4.3666510976613627e-04  9.9041251638344978e-03  1.0125460364395478e-02  5.2905310310639685e-03  1.6738060056375157e-03  1.0539299780251937e-03  1.7509943785859256e-02  7.9481742737841556e-03  8.2301199201575831e-03  2.6813519196780444e-03  4.2092503936881440e-03  1.6431047346573524e-02  2.0239237553173476e-02  3.2419455750890575e-03  1.8942544011314431e-03  1.2857087406067304e-03  2.3347381581353514e-02  8.8547038757202552e-03  2.3929504636299306e-02  1.7910823459287622e-04  8.9236891487901089e-05  5.3586402782911980e-04  1.9001021477923864e-04  1.378814831740890