<?xml version="1.0"?>
<VTKFile type="UnstructuredGrid"  version="0.1"  >
<UnstructuredGrid>
<Piece  NumberOfPoints="1089" NumberOfCells="2048">
<Points>
<DataArray  type="Float64"  NumberOfComponents="3"  format="ascii">0 0 0  0.03125 0 0  0.0625 0 0  0.09375 0 0  0.125 0 0  0.15625 0 0  0.1875 0 0  0.21875 0 0  0.25 0 0  0.28125 0 0  0.3125 0 0  0.34375 0 0  0.375 0 0  0.40625 0 0  0.4375 0 0  0.46875 0 0  0.5 0 0  0.53125 0 0  0.5625 0 0  0.59375 0 0  0.625 0 0  0.65625 0 0  0.6875 0 0  0.71875 0 0  0.75 0 0  0.78125 0 0  0.8125 0 0  0.84375 0 0  0.875 0 0  0.90625 0 0  0.9375 0 0  0.96875 0 0  1 0 0  0 0.03125 0  0.03125 0.03125 0  0.0625 0.03125 0  0.09375 0.03125 0  0.125 0.03125 0  0.15625 0.03125 0  0.1875 0.03125 0  0.21875 0.03125 0  0.25 0.03125 0  0.28125 0.03125 0  0.3125 0.03125 0  0.34375 0.03125 0  0.375 0.03125 0  0.40625 0.03125 0  0.4375 0.03125 0  0.46875 0.03125 0  0.5 0.03125 0  0.53125 0.03125 0  0.5625 0.03125 0  0.59375 0.03125 0  0.625 0.03125 0  0.65625 0.03125 0  0.6875 0.03125 0  0.71875 0.03125 0  0.75 0.03125 0  0.78125 0.03125 0  0.8125 0.03125 0  0.84375 0.03125 0  0.875 0.03125 0  0.90625 0.03125 0  0.9375 0.03125 0  0.96875 0.03125 0  1 0.03125 0  0 0.0625 0  0.03125 0.0625 0  0.0625 0.0625 0  0.09375 0.0625 0  0.125 0.0625 0  0.15625 0.0625 0  0.1875 0.0625 0  0.21875 0.0625 0  0.25 0.0625 0  0.28125 0.0625 0  0.3125 0.0625 0  0.34375 0.0625 0  0.375 0.0625 0  0.40625 0.0625 0  0.4375 0.0625 0  0.46875 0.0625 0  0.5 0.0625 0  0.53125 0.0625 0  0.5625 0.0625 0  0.59375 0.0625 0  0.625 0.0625 0  0.65625 0.0625 0  0.6875 0.0625 0  0.71875 0.0625 0  0.75 0.0625 0  0.78125 0.0625 0  0.8125 0.0625 0  0.84375 0.0625 0  0.875 0.0625 0  0.90625 0.0625 0  0.9375 0.0625 0  0.96875 0.0625 0  1 0.0625 0  0 0.09375 0  0.03125 0.09375 0  0.0625 0.09375 0  0.09375 0.09375 0  0.125 0.09375 0  0.15625 0.09375 0  0.1875 0.09375 0  0.21875 0.09375 0  0.25 0.09375 0  0.28125 0.09375 0  0.3125 0.09375 0  0.34375 0.09375 0  0.375 0.09375 0  0.40625 0.09375 0  0.4375 0.09375 0  0.46875 0.09375 0  0.5 0.09375 0  0.53125 0.09375 0  0.5625 0.09375 0  0.59375 0.09375 0  0.625 0.09375 0  0.65625 0.09375 0  0.6875 0.09375 0  0.71875 0.09375 0  0.75 0.09375 0  0.78125 0.09375 0  0.8125 0.09375 0  0.84375 0.09375 0  0.875 0.09375 0  0.90625 0.09375 0  0.9375 0.09375 0  0.96875 0.09375 0  1 0.09375 0  0 0.125 0  0.03125 0.125 0  0.0625 0.125 0  0.09375 0.125 0  0.125 0.125 0  0.15625 0.125 0  0.1875 0.125 0  0.21875 0.125 0  0.25 0.125 0  0.28125 0.125 0  0.3125 0.125 0  0.34375 0.125 0  0.375 0.125 0  0.40625 0.125 0  0.4375 0.125 0  0.46875 0.125 0  0.5 0.125 0  0.53125 0.125 0  0.5625 0.125 0  0.59375 0.125 0  0.625 0.125 0  0.65625 0.125 0  0.6875 0.125 0  0.71875 0.125 0  0.75 0.125 0  0.78125 0.125 0  0.8125 0.125 0  0.84375 0.125 0  0.875 0.125 0  0.90625 0.125 0  0.9375 0.125 0  0.96875 0.125 0  1 0.125 0  0 0.15625 0  0.03125 0.15625 0  0.0625 0.15625 0  0.09375 0.15625 0  0.125 0.15625 0  0.15625 0.15625 0  0.1875 0.15625 0  0.21875 0.15625 0  0.25 0.15625 0  0.28125 0.15625 0  0.3125 0.15625 0  0.34375 0.15625 0  0.375 0.15625 0  0.40625 0.15625 0  0.4375 0.15625 0  0.46875 0.15625 0  0.5 0.15625 0  0.53125 0.15625 0  0.5625 0.15625 0  0.59375 0.15625 0  0.625 0.15625 0  0.65625 0.15625 0  0.6875 0.15625 0  0.71875 0.15625 0  0.75 0.15625 0  0.78125 0.15625 0  0.8125 0.15625 0  0.84375 0.15625 0  0.875 0.15625 0  0.90625 0.15625 0  0.9375 0.15625 0  0.96875 0.15625 0  1 0.15625 0  0 0.1875 0  0.03125 0.1875 0  0.0625 0.1875 0  0.09375 0.1875 0  0.125 0.1875 0  0.15625 0.1875 0  0.1875 0.1875 0  0.21875 0.1875 0  0.25 0.1875 0  0.28125 0.1875 0  0.3125 0.1875 0  0.34375 0.1875 0  0.375 0.1875 0  0.40625 0.1875 0  0.4375 0.1875 0  0.46875 0.1875 0  0.5 0.1875 0  0.53125 0.1875 0  0.5625 0.1875 0  0.59375 0.1875 0  0.625 0.1875 0  0.65625 0.1875 0  0.6875 0.1875 0  0.71875 0.1875 0  0.75 0.1875 0  0.78125 0.1875 0  0.8125 0.1875 0  0.84375 0.1875 0  0.875 0.1875 0  0.90625 0.1875 0  0.9375 0.1875 0  0.96875 0.1875 0  1 0.1875 0  0 0.21875 0  0.03125 0.21875 0  0.0625 0.21875 0  0.09375 0.21875 0  0.125 0.21875 0  0.15625 0.21875 0  0.1875 0.21875 0  0.21875 0.21875 0  0.25 0.21875 0  0.28125 0.21875 0  0.3125 0.21875 0  0.34375 0.21875 0  0.375 0.21875 0  0.40625 0.21875 0  0.4375 0.21875 0  0.46875 0.21875 0  0.5 0.21875 0  0.53125 0.21875 0  0.5625 0.21875 0  0.59375 0.21875 0  0.625 0.21875 0  0.65625 0.21875 0  0.6875 0.21875 0  0.71875 0.21875 0  0.75 0.21875 0  0.78125 0.21875 0  0.8125 0.21875 0  0.84375 0.21875 0  0.875 0.21875 0  0.90625 0.21875 0  0.9375 0.21875 0  0.96875 0.21875 0  1 0.21875 0  0 0.25 0  0.03125 0.25 0  0.0625 0.25 0  0.09375 0.25 0  0.125 0.25 0  0.15625 0.25 0  0.1875 0.25 0  0.21875 0.25 0  0.25 0.25 0  0.28125 0.25 0  0.3125 0.25 0  0.34375 0.25 0  0.375 0.25 0  0.40625 0.25 0  0.4375 0.25 0  0.46875 0.25 0  0.5 0.25 0  0.53125 0.25 0  0.5625 0.25 0  0.59375 0.25 0  0.625 0.25 0  0.65625 0.25 0  0.6875 0.25 0  0.71875 0.25 0  0.75 0.25 0  0.78125 0.25 0  0.8125 0.25 0  0.84375 0.25 0  0.875 0.25 0  0.90625 0.25 0  0.9375 0.25 0  0.96875 0.25 0  1 0.25 0  0 0.28125 0  0.03125 0.28125 0  0.0625 0.28125 0  0.09375 0.28125 0  0.125 0.28125 0  0.15625 0.28125 0  0.1875 0.28125 0  0.21875 0.28125 0  0.25 0.28125 0  0.28125 0.28125 0  0.3125 0.28125 0  0.34375 0.28125 0  0.375 0.28125 0  0.40625 0.28125 0  0.4375 0.28125 0  0.46875 0.28125 0  0.5 0.28125 0  0.53125 0.28125 0  0.5625 0.28125 0  0.59375 0.28125 0  0.625 0.28125 0  0.65625 0.28125 0  0.6875 0.28125 0  0.71875 0.28125 0  0.75 0.28125 0  0.78125 0.28125 0  0.8125 0.28125 0  0.84375 0.28125 0  0.875 0.28125 0  0.90625 0.28125 0  0.9375 0.28125 0  0.96875 0.28125 0  1 0.28125 0  0 0.3125 0  0.03125 0.3125 0  0.0625 0.3125 0  0.09375 0.3125 0  0.125 0.3125 0  0.15625 0.3125 0  0.1875 0.3125 0  0.21875 0.3125 0  0.25 0.3125 0  0.28125 0.3125 0  0.3125 0.3125 0  0.34375 0.3125 0  0.375 0.3125 0  0.40625 0.3125 0  0.4375 0.3125 0  0.46875 0.3125 0  0.5 0.3125 0  0.53125 0.3125 0  0.5625 0.3125 0  0.59375 0.3125 0  0.625 0.3125 0  0.65625 0.3125 0  0.6875 0.3125 0  0.71875 0.3125 0  0.75 0.3125 0  0.78125 0.3125 0  0.8125 0.3125 0  0.84375 0.3125 0  0.875 0.3125 0  0.90625 0.3125 0  0.9375 0.3125 0  0.96875 0.3125 0  1 0.3125 0  0 0.34375 0  0.03125 0.34375 0  0.0625 0.34375 0  0.09375 0.34375 0  0.125 0.34375 0  0.15625 0.34375 0  0.1875 0.34375 0  0.21875 0.34375 0  0.25 0.34375 0  0.28125 0.34375 0  0.3125 0.34375 0  0.34375 0.34375 0  0.375 0.34375 0  0.40625 0.34375 0  0.4375 0.34375 0  0.46875 0.34375 0  0.5 0.34375 0  0.53125 0.34375 0  0.5625 0.34375 0  0.59375 0.34375 0  0.625 0.34375 0  0.65625 0.34375 0  0.6875 0.34375 0  0.71875 0.34375 0  0.75 0.34375 0  0.78125 0.34375 0  0.8125 0.34375 0  0.84375 0.34375 0  0.875 0.34375 0  0.90625 0.34375 0  0.9375 0.34375 0  0.96875 0.34375 0  1 0.34375 0  0 0.375 0  0.03125 0.375 0  0.0625 0.375 0  0.09375 0.375 0  0.125 0.375 0  0.15625 0.375 0  0.1875 0.375 0  0.21875 0.375 0  0.25 0.375 0  0.28125 0.375 0  0.3125 0.375 0  0.34375 0.375 0  0.375 0.375 0  0.40625 0.375 0  0.4375 0.375 0  0.46875 0.375 0  0.5 0.375 0  0.53125 0.375 0  0.5625 0.375 0  0.59375 0.375 0  0.625 0.375 0  0.65625 0.375 0  0.6875 0.375 0  0.71875 0.375 0  0.75 0.375 0  0.78125 0.375 0  0.8125 0.375 0  0.84375 0.375 0  0.875 0.375 0  0.90625 0.375 0  0.9375 0.375 0  0.96875 0.375 0  1 0.375 0  0 0.40625 0  0.03125 0.40625 0  0.0625 0.40625 0  0.09375 0.40625 0  0.125 0.40625 0  0.15625 0.40625 0  0.1875 0.40625 0  0.21875 0.40625 0  0.25 0.40625 0  0.28125 0.40625 0  0.3125 0.40625 0  0.34375 0.40625 0  0.375 0.40625 0  0.40625 0.40625 0  0.4375 0.40625 0  0.46875 0.40625 0  0.5 0.40625 0  0.53125 0.40625 0  0.5625 0.40625 0  0.59375 0.40625 0  0.625 0.40625 0  0.65625 0.40625 0  0.6875 0.40625 0  0.71875 0.40625 0  0.75 0.40625 0  0.78125 0.40625 0  0.8125 0.40625 0  0.84375 0.40625 0  0.875 0.40625 0  0.90625 0.40625 0  0.9375 0.40625 0  0.96875 0.40625 0  1 0.40625 0  0 0.4375 0  0.03125 0.4375 0  0.0625 0.4375 0  0.09375 0.4375 0  0.125 0.4375 0  0.15625 0.4375 0  0.1875 0.4375 0  0.21875 0.4375 0  0.25 0.4375 0  0.28125 0.4375 0  0.3125 0.4375 0  0.34375 0.4375 0  0.375 0.4375 0  0.40625 0.4375 0  0.4375 0.4375 0  0.46875 0.4375 0  0.5 0.4375 0  0.53125 0.4375 0  0.5625 0.4375 0  0.59375 0.4375 0  0.625 0.4375 0  0.65625 0.4375 0  0.6875 0.4375 0  0.71875 0.4375 0  0.75 0.4375 0  0.78125 0.4375 0  0.8125 0.4375 0  0.84375 0.4375 0  0.875 0.4375 0  0.90625 0.4375 0  0.9375 0.4375 0  0.96875 0.4375 0  1 0.4375 0  0 0.46875 0  0.03125 0.46875 0  0.0625 0.46875 0  0.09375 0.46875 0  0.125 0.46875 0  0.15625 0.46875 0  0.1875 0.46875 0  0.21875 0.46875 0  0.25 0.46875 0  0.28125 0.46875 0  0.3125 0.46875 0  0.34375 0.46875 0  0.375 0.46875 0  0.40625 0.46875 0  0.4375 0.46875 0  0.46875 0.46875 0  0.5 0.46875 0  0.53125 0.46875 0  0.5625 0.46875 0  0.59375 0.46875 0  0.625 0.46875 0  0.65625 0.46875 0  0.6875 0.46875 0  0.71875 0.46875 0  0.75 0.46875 0  0.78125 0.46875 0  0.8125 0.46875 0  0.84375 0.46875 0  0.875 0.46875 0  0.90625 0.46875 0  0.9375 0.46875 0  0.96875 0.46875 0  1 0.46875 0  0 0.5 0  0.03125 0.5 0  0.0625 0.5 0  0.09375 0.5 0  0.125 0.5 0  0.15625 0.5 0  0.1875 0.5 0  0.21875 0.5 0  0.25 0.5 0  0.28125 0.5 0  0.3125 0.5 0  0.34375 0.5 0  0.375 0.5 0  0.40625 0.5 0  0.4375 0.5 0  0.46875 0.5 0  0.5 0.5 0  0.53125 0.5 0  0.5625 0.5 0  0.59375 0.5 0  0.625 0.5 0  0.65625 0.5 0  0.6875 0.5 0  0.71875 0.5 0  0.75 0.5 0  0.78125 0.5 0  0.8125 0.5 0  0.84375 0.5 0  0.875 0.5 0  0.90625 0.5 0  0.9375 0.5 0  0.96875 0.5 0  1 0.5 0  0 0.53125 0  0.03125 0.53125 0  0.0625 0.53125 0  0.09375 0.53125 0  0.125 0.53125 0  0.15625 0.53125 0  0.1875 0.53125 0  0.21875 0.53125 0  0.25 0.53125 0  0.28125 0.53125 0  0.3125 0.53125 0  0.34375 0.53125 0  0.375 0.53125 0  0.40625 0.53125 0  0.4375 0.53125 0  0.46875 0.53125 0  0.5 0.53125 0  0.53125 0.53125 0  0.5625 0.53125 0  0.59375 0.53125 0  0.625 0.53125 0  0.65625 0.53125 0  0.6875 0.53125 0  0.71875 0.53125 0  0.75 0.53125 0  0.78125 0.531
[...]
<PointData  Scalars="theta"> 
<DataArray  type="Float64"  Name="theta"  format="ascii">-4.3761839905603970e-04  -7.1825726632326263e-04  -1.7620411938392654e-02  -1.1969167545217286e-02  -1.1784310799145923e-03  -7.6777612975822305e-03  -1.4287864393300563e-03  -8.0610531597698296e-03  -1.2427543252589867e-02  -7.1948733233364497e-03  -5.0519243306959365e-04  -6.6518737907911235e-03  -5.7729346816972225e-03  -2.2879581289291833e-02  -1.6925408743197527e-02  -9.2536035982895316e-03  -2.1030041460512088e-03  -8.0707826316564445e-03  -1.2932812810742054e-03  -1.3111050703147335e-03  -8.2946011515998719e-03  -8.3694765625161500e-04  -6.0536735151208200e-03  -1.4777649603826031e-02  -2.5297063735587381e-02  -1.0231349824542210e-02  -2.4232002601522050e-02  -1.1143261504445326e-02  -2.7551769935975311e-02  -1.9406799062784797e-02  -1.1143261504445230e-02  -2.9666324780036413e-03  -2.6994890411980405e-02  -5.9079604817288273e-03  -3.3705170747853501e-04  0.0000000000000000e+00  -1.6512187197284891e-02  -1.1227377946769836e-02  -1.1053977704329203e-03  -7.1948733233368088e-03  0.0000000000000000e+00  -6.2085866075016960e-03  -1.1280742054377072e-02  -6.7489707847316971e-03  -3.8909692220124681e-04  -6.2204638623360653e-03  -4.4462881264252631e-03  -2.1461618398128927e-02  -1.5363549039116816e-02  -7.1270835500990958e-03  0.0000000000000000e+00  -7.5631758274695262e-03  -1.2131301261552505e-03  -1.2298492854026239e-03  -7.7729174221863101e-03  0.0000000000000000e+00  -4.6625119034992210e-03  -1.3413982954031445e-02  -2.3729277280979757e-02  -7.8801392619933242e-03  -2.2660426405485701e-02  -8.5824895046795451e-03  -2.5844247981744655e-02  -1.7615959154499743e-02  -8.5824895046794723e-03  0.0000000000000000e+00  -8.1197385493149473e-03  -5.0952689313763485e-03  -2.2951453617693011e-04  -1.2772484964381480e-02  -1.5488843788957598e-02  -1.0526978839027132e-02  -1.0364395848456312e-03  -6.7489707847320345e-03  -1.8827485908951544e-02  -4.2277218715048338e-03  -1.0026520176919716e-02  -6.3279487849184964e-03  -2.6495459790120622e-04  -5.7841905898376343e-03  -3.0276890293174830e-03  -2.0122775219603116e-02  -1.3655390193948245e-02  -4.8531701190073218e-03  -1.5231591311062161e-02  -7.0944477276370646e-03  -1.1374512577709019e-03  -1.1531274233402690e-03  -7.2911905793138733e-03  -1.5972306287348671e-02  -3.1749260816878932e-03  -1.1922581873881906e-02  -2.2248970417367040e-02  -5.3659615649364265e-03  -2.1071133612710208e-02  -5.8442252455740574e-03  -2.4232002601521842e-02  -1.5657371567134787e-02  -5.8442252455740079e-03  -3.8348953182972953e-03  -7.2169651609425775e-03  -4.2046615757666272e-03  -1.1650565277443329e-04  -1.1969167545217572e-02  -1.4522601054350701e-02  -9.8442474267024134e-03  -9.6922088208472614e-04  -6.3279487849188121e-03  -1.7643343008654448e-02  -2.1460666700810430e-03  -8.6472847787782501e-03  -5.9175471419486174e-03  -1.3449565721741996e-04  -5.3273177694682389e-03  -1.5369086970887904e-03  -1.8817704604790125e-02  -1.1776972039035268e-02  -2.4635553031135465e-03  -1.4273609942841043e-02  -6.6518737907906751e-03  -1.0636814026639999e-03  -1.0783408842613871e-03  -6.8363432053014320e-03  -1.4967738115952926e-02  -1.6116488385401113e-03  -1.0282526633625106e-02  -2.0806004564761255e-02  -2.7238573438481718e-03  -1.9406799062784960e-02  -2.9666324780036665e-03  -2.2660426405485507e-02  -1.3503563393791010e-02  -5.4632958819376889e-04  -3.4085218064500850e-03  -6.2242085872273208e-03  -3.2384112883243965e-03  0.0000000000000000e+00  -1.1227377946770105e-02  -1.3580731969204748e-02  -9.1538194883398170e-03  -9.0124441355137754e-04  -5.9175471419489131e-03  -1.6549896177350792e-02  0.0000000000000000e+00  -7.1358168790943803e-03  -5.5025189842555456e-03  0.0000000000000000e+00  -4.8357182411372223e-03  0.0000000000000000e+00  -1.7497921747670928e-02  -9.7184628482472561e-03  0.0000000000000000e+00  -1.3389002442119208e-02  -6.2204638623356472e-03  -9.8907992973434737e-04  -1.0027112661401283e-03  -6.3929694393745620e-03  -1.4040111996195261e-02  0.0000000000000000e+00  -8.4852331094762874e-03  -1.9346771957680916e-02  0.0000000000000000e+00  -1.7615959154499896e-02  0.0000000000000000e+00  -2.1071133612710027e-02  -3.4710532601685625e-03  -4.7117718299306594e-04  -2.9396498700414056e-03  -5.1362726950708957e-03  -2.2051882494535137e-03  -1.2575221453712262e-03  -1.0526978839027383e-02  -1.2628245063042744e-02  -8.4307915621615517e-03  -8.3005829499836878e-04  -5.5025189842558215e-03  -1.5517461661401692e-02  -2.1268674259496013e-02  -5.4959738176934350e-03  -5.0678944108727489e-03  -1.3800805824493410e-03  -4.2980706660026950e-03  -2.0841901499288096e-02  -1.6115822604273619e-02  -7.4851160374748791e-03  -2.0841901499287465e-02  -1.2553754407494776e-02  -5.7841905898372448e-03  -9.1095599345492788e-04  -9.2351063866037805e-04  -5.9445974594028025e-03  -1.3164245702091215e-02  -2.2387851245295038e-02  -6.5352880822000040e-03  -1.7818638655006096e-02  -2.9400922488544590e-02  -1.5657371567134922e-02  -2.9400922488544340e-02  -9.2408666263362838e-04  -2.6733894886785451e-03  -3.8881963315207265e-04  -2.4258254120124874e-03  -3.9559339499510683e-03  -1.1193927006655352e-03  -1.1784310799146467e-03  -9.8442474267026493e-03  -1.1630784511102292e-02  -7.6528065920948166e-03  -7.5346134997528690e-04  -5.0678944108730022e-03  -1.4511070494687566e-02  -1.9930994351254012e-02  -3.7424699344945247e-03  -4.6002342092803213e-03  -1.2932812810743080e-03  -3.7068335167562104e-03  -1.9531063195734277e-02  -1.4628670695233648e-02  -5.0969714659610636e-03  -1.9531063195733684e-02  -1.1739575657098556e-02  -5.3273177694678807e-03  -8.2689389014295358e-04  -8.3829000530975394e-04  -5.4750546659807177e-03  -1.2310473295229519e-02  -2.0979781403510197e-02  -4.4501884419745194e-03  -1.6174352592608097e-02  -2.7551769935975551e-02  -1.3503563393791124e-02  -4.8672371184586239e-03  0.0000000000000000e+00  -1.8204380363609711e-03  -2.9946711915625294e-04  -1.8683597374499952e-03  -2.6937835516748204e-03  0.0000000000000000e+00  -1.1053977704329715e-03  -9.1538194883400356e-03  -1.0557507408589913e-02  -6.8019478980933055e-03  -6.6968958173501552e-04  -4.6002342092805511e-03  -1.3493334140570192e-02  -1.8695770243928121e-02  -1.8997441729392394e-03  -4.0887683536748017e-03  -1.2131301261553470e-03  -3.0589122312447963e-03  -1.8320624836468041e-02  -1.3002217511955490e-02  -2.5873131946495985e-03  -1.8320624836467486e-02  -1.0916218556565237e-02  -4.8357182411368970e-03  -7.3495770346712207e-04  -7.4508676927747706e-04  -4.9698221253561860e-03  -1.1447076193442100e-02  -1.9679558680080807e-02  -2.2589946503510151e-03  -1.4376046525722462e-02  -2.5844247981744877e-02  -5.2349583794244732e-04  -4.5636035763169901e-03  -1.0403250271509854e-02  -9.2408666263361959e-04  -2.0392140264640561e-04  -1.2722549954143031e-03  -1.3674123493379515e-03  -6.4004156126881975e-03  -1.0364395848456789e-03  -8.4307915621617529e-03  -9.3836966167605094e-03  -5.8662805726577387e-03  -5.7756793228960985e-04  -4.0887683536750064e-03  -1.2427543252590136e-02  -1.7529469362324929e-02  0.0000000000000000e+00  -3.5263225650381527e-03  -1.1374512577709923e-03  -2.3559603362015105e-03  -1.7177726703922071e-02  -1.1213648962709011e-02  0.0000000000000000e+00  -1.7177726703921554e-02  -1.0053984941983273e-02  -4.2980706660024062e-03  -6.3385785398075432e-04  -6.4259357834569903e-04  -4.4172645359133204e-03  -1.0542912005859884e-02  -1.8451885985205120e-02  0.0000000000000000e+00  -1.2398495799873680e-02  -7.0716900475076012e-04  -4.6529222602220780e-04  -4.2676292457333653e-03  -9.7489443801871481e-03  0.0000000000000000e+00  -1.0351412387964294e-04  -6.4581922001668841e-04  0.0000000000000000e+00  -5.9978654929660523e-03  -9.6922088208477081e-04  -7.6528065920949996e-03  -8.0928872122126953e-03  -4.8409072904141036e-03  -4.7661423273238619e-04  -3.5263225650383292e-03  -1.1280742054377315e-02  -1.6392588633480511e-02  -1.4160041618533525e-02  -2.9099529765094509e-03  -1.0636814026640845e-03  -1.6042854310387078e-03  -1.6063658385515479e-02  -9.2536035982896964e-03  -2.4415157270112928e-02  -1.6063658385514993e-02  -9.1262133185872341e-03  -3.7068335167559610e-03  -5.2306518046945391e-04  -5.3027397848747122e-04  -3.8096312291045508e-03  -9.5700226845169441e-03  -1.7255181558287321e-02  -2.6994890411981151e-02  -5.0228171829015573e-03  0.0000000000000000e+00  -4.0128721757599515e-04  -3.9683183554122545e-03  -9.1447531939792808e-03  -5.5370642378236874e-03  0.0000000000000000e+00  0.0000000000000000e+00  -1.3551791396761591e-02  -5.6261475586351119e-03  -9.0124441355141907e-04  -6.8019478980934668e-03  -6.6783230397638935e-03  -3.7284448540072031e-03  -3.6708612183020036e-04  -2.9099529765095966e-03  -1.0026520176919932e-02  -1.5242891690274835e-02  -1.3269454695160724e-02  -2.2412325933516284e-03  -9.8907992973442608e-04  -8.1436376315438368e-04  -1.4937031020218990e-02  -7.1270835500992225e-03  -2.2879581289291424e-02  -1.4937031020218539e-02  -8.1115374801237951e-03  -3.0589122312445908e-03  -4.0286243124165635e-04  -4.0841461480176636e-04  -3.1437418245418517e-03  -8.5060029807752877e-03  -1.6044986516150786e-02  -8.8159818112607506e-05  -4.6260825634400456e-03  -4.5459675912907496e-03  -3.3114580747601821e-04  -3.6548748803050951e-03  -8.5742747609954626e-03  -5.1888140605341896e-03  -1.1546336433974275e-03  -1.1093783362291448e-02  -1.2699459989032167e-02  -5.2751707990765246e-03  -8.3005829499840705e-04  -5.8662805726578792e-03  -5.1436141361995468e-03  -2.5388754079616171e-03  -2.4996639720097552e-04  -2.2412325933517407e-03  -8.6472847787784374e-03  -1.4038909420161470e-02  -1.2447079752813705e-02  -1.5261618550337006e-03  -9.1095599345500031e-04  0.0000000000000000e+00  -1.3757207606007434e-02  -4.8531701190074068e-03  -2.1461618398128542e-02  -1.3757207606007018e-02  -6.9957246728358565e-03  -2.3559603362013517e-03  -2.7432818762808853e-04  -2.7810893344925897e-04  -2.4212957044747732e-03  -7.3359279995482262e-03  -4.2021526662852274e-04  0.0000000000000000e+00  -4.1991923149849635e-03  -4.2600518150559489e-03  -2.5504700002308955e-04  -3.3176067005159606e-03  -8.0181867506793313e-03  -4.8672371184585363e-03  -1.0820136856460223e-03  -1.0396046825962629e-02  -1.1912410489543139e-02  -4.9330474923823444e-03  -7.5346134997532159e-04  -4.8409072904142189e-03  -3.5025314708370726e-03  -1.2887782257481946e-03  -1.2688738048000032e-04  -1.5261618550337771e-03  -7.1358168790945338e-03  -1.2743412971876174e-02  -1.1670591814649906e-02  -7.7470684916911914e-04  -8.2689389014301939e-04  -1.5231591311062881e-02  -1.2487706317943627e-02  -2.4635553031135903e-03  -2.0122775219602759e-02  -1.2487706317943251e-02  -5.7729346816969510e-03  -1.6042854310385998e-03  -1.3925385775739917e-04  -1.4117303144986677e-04  -1.6487753903312054e-03  -3.0318208529476072e-03  -3.7349465391470129e-04  -4.5459675912907982e-03  -3.7323153273083071e-03  -3.9960349472731600e-03  -1.7367363112185031e-04  -2.9487466659075361e-03  -7.4558298829860703e-03  -4.5636035763169077e-03  -1.0149558477172080e-03  -9.7517514418986682e-03  -1.1169276899714956e-02  -4.5870673821332038e-03  -6.6968958173504632e-04  -3.7284448540072916e-03  -1.7779471495360832e-03  0.0000000000000000e+00  0.0000000000000000e+00  -7.7470684916915796e-04  -5.4959738176935530e-03  -1.1326567584776896e-02  -1.0913690926548798e-02  0.0000000000000000e+00  -7.3495770346718062e-04  -1.4273609942841716e-02  -1.1099291053439804e-02  0.0000000000000000e+00  -1.8817704604789789e-02  -1.1099291053439467e-02  -4.4462881264250541e-03  -8.1436376315432892e-04  0.0000000000000000e+00  0.0000000000000000e+00  -3.4801934326726539e-04  -2.8426863435093491e-03  -3.2211720305377775e-04  -4.2600518150559949e-03  -3.2189027648622383e-03  -3.7467497334994471e-03  -8.8159818112606069e-05  -2.5431208146642248e-03  -6.8669201688388607e-03  -4.2676292457332890e-03  -9.5163971339718226e-04  -9.1434065512913717e-03  -1.0444888990420653e-02  -4.2247511030358929e-03  -5.7756793228963641e-04  -2.5388754079616769e-03  0.0000000000000000e+00  -7.1183155886616421e-03  -1.3329242574585552e-03  0.0000000000000000e+00  -3.7424699344946054e-03  -9.7684993141592784e-03  -1.0148257389607746e-02  -1.3329242574584730e-03  -6.3385785398080484e-04  -1.3389002442119840e-02  -9.5724866542008617e-03  -2.5641664497879038e-02  -1.7497921747670619e-02  -9.5724866542005720e-03  -3.0276890293173403e-03  0.0000000000000000e+00  -1.3991006253405113e-03  -2.6581400212918622e-04  0.0000000000000000e+00  -2.6583227866163548e-03  -2.6581400212918362e-04  -3.9960349472732033e-03  -2.6562674029237672e-03  -3.5037527847741525e-03  0.0000000000000000e+00  -2.0986060826160505e-03  -6.2332476788223897e-03  -3.9683183554121825e-03  -8.8992074012982526e-04  -8.5504072716614775e-03  -9.7123349556123284e-03  -3.8348953182972059e-03  -4.7661423273240809e-04  -1.2887782257482252e-03  -1.6380747623590108e-02  -6.6706136008789704e-03  -1.2490908235239218e-03  -1.4160041618534012e-02  -1.8997441729392802e-03  -8.0610531597697915e-03  -9.3466823198701515e-03  -1.2490908235238448e-03  -5.2306518046949554e-04  -1.2553754407495368e-02  -7.8993017564992427e-03  -2.4028948115362599e-02  -1.6115822604273331e-02  -7.8993017564990015e-03  -1.5369086970887179e-03  -1.3800805824492315e-03  -2.7300841131951332e-04  -2.0472873965674421e-04  -4.6944090534536851e-03  -2.4718808737396636e-03  -2.0472873965674221e-04  -3.7467497334994875e-03  -2.0458451143878457e-03  -3.2580164976952568e-03  -1.0258806088117313e-03  -1.6163368930473150e-03  -5.5402191910948568e-03  -3.6548748803050296e-03  -8.2750600030448050e-04  -7.9507230287887542e-03  -8.9451918619288581e-03  -3.4085218064500060e-03  -3.6708612183021722e-04  0.0000000000000000e+00  -1.5350490790902192e-02  -6.2572020778385619e-03  -1.1716783738355185e-03  -1.3269454695161180e-02  0.0000000000000000e+00  -6.2085866075016673e-03  -8.4841798714069237e-03  -1.1716783738354463e-03  -4.0286243124168839e-04  -1.1739575657099110e-02  -6.0840064098294788e-03  -2.2539753172918016e-02  -1.4628670695233388e-02  -6.0840064098292941e-03  0.0000000000000000e+00  -1.3612524701242309e-03  -2.3545372053566482e-04  -1.3940953474445033e-04  -4.3991571446954023e-03  -2.2766357190611925e-03  -1.3940953474444892e-04  -3.5037527847741902e-03  -1.3931132289204265e-03  -3.0006772618949664e-03  -9.6135849229805990e-04  -1.1006406556686560e-03  -4.7781136662478308e-03  -3.3176067005159008e-03  -7.6214421902155802e-04  -7.3227234499850108e-03  -8.1197385493149161e-03  -2.9396498700413371e-03  -2.4996639720098707e-04  -1.6380747623590326e-02  -1.4399143560049480e-02  -5.8668581548797028e-03  -1.0985853959838269e-03  -1.2447079752814134e-02  -2.1268674259496117e-02  -4.2277218715048139e-03  -7.5408869607359406e-03  -1.0985853959837593e-03  -2.7432818762811032e-04  -1.0916218556565754e-02  -4.1428892904760307e-03  -2.1133652560121372e-02  -1.3002217511955259e-02  -4.1428892904759049e-03  -1.3612524701242343e-03  -1.2099049239661108e-03  -1.9429851985068450e-04  -7.0766754554759244e-05  -4.1265192189964862e-03  -2.0665500635580966e-03  -7.0766754554758539e-05  -3.2580164976952915e-03  -7.0716900475076370e-04  -2.7237777806822252e-03  -9.0177826441071793e-04  -5.5870473476200811e-04  -3.9429422092723170e-03  -2.9487466659074827e-03  -6.9181431665708772e-04  -6.6469898913933973e-03  -7.2169651609425498e-03  -2.4258254120124306e-03  -1.2688738048000618e-04  -1.5350490790902397e-02  -1.3500879749074872e-02  -5.4863607286722814e-03  -1.0273362018485925e-03  -1.1670591814650310e-02  -1.9930994351254110e-02  -2.1460666700810326e-03  -6.5035721150956821e-03  -1.0273362018485292e-03  -1.3925385775741026e-04  -1.0053984941983750e-02  -2.1030041460512721e-03  -1.9763021092101343e-02  -1.1213648962708812e-02  -2.7300841131951446e-04  -1.2099049239661141e-03  -1.0434719372394660e-03  -1.4964783934470503e-04  0.0000000000000000e+00  -3.8690939864291815e-03  -1.8367857193259934e-03  0.0000000000000000e+00  -3.0006772618949981e-03  0.0000000000000000e+00  -2.4209411706971259e-03  -8.4552250329093250e-04  0.0000000000000000e+00  -3.0368362184749875e-03  -2.5431208146641788e-03  -6.1489662392845575e-04  -5.9079604817289227e-03  -6.2242085872272965e-03  -1.8683597374499516e-03  0.0000000000000000e+00  -1.4399143560049675e-02  -1.2625274806796493e-02  -5.1015739021307242e-03  -9.5528380565184398e-04  -1.0913690926549173e-02  -1.8695770243928211e-02  0.0000000000000000e+00  -5.3668059813642682e-03  -9.5528380565178522e-04  0.0000000000000000e+00  -9.1262133185876643e-03  0.0000000000000000e+00  -1.8376938305170950e-02  -1.1829586916985242e-04  -2.3545372053566585e-04  -1.0434719372394688e-03  -8.6108239211554218e-04  -1.0190233033982498e-04  -3.4490587599851708e-03  -3.6181623523711048e-03  -1.5841198055100772e-03  -8.7371118537648510e-04  -2.7237777806822538e-03  -7.0084249562889830e-03  -2.0879195739192382e-03  -7.9068580402028986e-04  -9.1581955440169574e-03  -2.0679261984542156e-03  -2.0986060826160124e-03  -5.3031222426085849e-04  -5.0952689313764300e-03  -5.1362726950708749e-03  -1.2722549954142734e-03  -7.1183155886618971e-03  -1.3500879749075052e-02  -1.1739799048388249e-02  -4.6986185671034969e-03  -8.7982930605285726e-04  -1.0148257389608097e-02  -1.7529469362325016e-02  -1.8827485908951135e-02  -4.1334896421784170e-03  -8.7982930605280305e-04  -8.0707826316569874e-03  -8.1115374801241768e-03  -2.4415157270113366e-02  -1.0526252357801491e-04  -9.1110942266964216e-05  -1.9429851985068537e-04  -8.6108239211554445e-04  -6.6320175561238059e-04  -5.1727431792490517e-05  -3.2321323757034475e-03  -3.3644019311495975e-03  -1.3072298572157841e-03  -8.1875966916890547e-04  -2.4209411706971520e-03  -6.5676344708047339e-03  -1.7229699401514894e-03  -7.3523092302232537e-04  -8.5821965877344239e-03  -1.0497160469807205e-03  -1.6163368930472858e-03  -4.3761839905605347e-04  -4.2046615757666940e-03  -3.9559339499510527e-03  -6.4581922001667334e-04  -6.6706136008792098e-03  -1.2625274806796661e-02  -1.0812513714597469e-02  -4.2650347691492027e-03  -7.9863954216337102e-04  -9.3466823198704741e-03  -1.6392588633480587e-02  -1.7643343008654062e-02  -2.8146896662054189e-03  -7.9863954216332180e-04  -7.5631758274700353e-03  -6.9957246728361861e-03  -9.1700970130453798e-04  0.0000000000000000e+00  -6.2041773386883300e-05  -1.4964783934470568e-04  -6.6320175561238232e-04  -4.5160561407568304e-04  0.0000000000000000e+00  -3.0318208529476242e-03  -3.0986596850622839e-03  -1.0068225111007716e-03  -7.6801700858509104e-04  -2.0879195739192604e-03  -6.1606050831348640e-03  -1.3270236386653449e-03  -6.7715762474370952e-04  -8.0503146388384520e-03  0.0000000000000000e+00  -1.1006406556686361e-03  -3.3705170747854558e-04  -3.2384112883244482e-03  -2.6937835516748095e-03  0.0000000000000000e+00  -6.2572020778387874e-03  -1.1739799048388405e-02  -9.8147458185969001e-03  -3.7908372482948344e-03  -7.0984474647037266e-04  -8.4841798714072152e-03  -1.5242891690274908e-02  -1.6549896177350431e-02  -1.4287864393300073e-03  -7.0984474647032886e-04  -7.0944477276375416e-03  -1.8700944948755536e-04  -8.5980375530092220e-04  -3.1211756798405730e-04  -3.1493505501325428e-05  -1.0190233033982540e-04  -4.5160561407568423e-04  -2.2924302634987032e-04  -7.0133657635624539e-04  -2.8426863435093647e-03  -2.8127184843392398e-03  -6.8559332743478813e-04  -7.2010569482202497e-04  -1.7229699401515074e-03  -5.7762871841703740e-03  -9.0363350241593192e-04  -6.1467019986404295e-04  -7.5481107211630262e-03  -9.1581955440168707e-03  -5.5870473476199792e-04  -2.2951453617693732e-04  -2.2051882494535492e-03  -1.3674123493379463e-03  -1.1546336433973907e-03  -5.8668581548799136e-03  -1.0812513714597613e-02  -8.7235171682094065e-03  -3.2693744846256476e-03  -6.1219940349581078e-04  -7.5408869607361999e-03  -1.4038909420161540e-02  -1.5517461661401359e-02  0.0000000000000000e+00  -6.1219940349577294e-04  -1.0568878143841009e-05  -1.6621725853877467e-04  -8.0404083973369144e-04  -2.9248712959341713e-04  0.0000000000000000e+00  -5.1727431792490734e-05  -2.2924302634987