<?xml version="1.0"?>
<VTKFile type="UnstructuredGrid"  version="0.1"  >
<UnstructuredGrid>
<Piece  NumberOfPoints="1089" NumberOfCells="2048">
<Points>
<DataArray  type="Float64"  NumberOfComponents="3"  format="ascii">0 0 0  0.03125 0 0  0.0625 0 0  0.09375 0 0  0.125 0 0  0.15625 0 0  0.1875 0 0  0.21875 0 0  0.25 0 0  0.28125 0 0  0.3125 0 0  0.34375 0 0  0.375 0 0  0.40625 0 0  0.4375 0 0  0.46875 0 0  0.5 0 0  0.53125 0 0  0.5625 0 0  0.59375 0 0  0.625 0 0  0.65625 0 0  0.6875 0 0  0.71875 0 0  0.75 0 0  0.78125 0 0  0.8125 0 0  0.84375 0 0  0.875 0 0  0.90625 0 0  0.9375 0 0  0.96875 0 0  1 0 0  0 0.03125 0  0.03125 0.03125 0  0.0625 0.03125 0  0.09375 0.03125 0  0.125 0.03125 0  0.15625 0.03125 0  0.1875 0.03125 0  0.21875 0.03125 0  0.25 0.03125 0  0.28125 0.03125 0  0.3125 0.03125 0  0.34375 0.03125 0  0.375 0.03125 0  0.40625 0.03125 0  0.4375 0.03125 0  0.46875 0.03125 0  0.5 0.03125 0  0.53125 0.03125 0  0.5625 0.03125 0  0.59375 0.03125 0  0.625 0.03125 0  0.65625 0.03125 0  0.6875 0.03125 0  0.71875 0.03125 0  0.75 0.03125 0  0.78125 0.03125 0  0.8125 0.03125 0  0.84375 0.03125 0  0.875 0.03125 0  0.90625 0.03125 0  0.9375 0.03125 0  0.96875 0.03125 0  1 0.03125 0  0 0.0625 0  0.03125 0.0625 0  0.0625 0.0625 0  0.09375 0.0625 0  0.125 0.0625 0  0.15625 0.0625 0  0.1875 0.0625 0  0.21875 0.0625 0  0.25 0.0625 0  0.28125 0.0625 0  0.3125 0.0625 0  0.34375 0.0625 0  0.375 0.0625 0  0.40625 0.0625 0  0.4375 0.0625 0  0.46875 0.0625 0  0.5 0.0625 0  0.53125 0.0625 0  0.5625 0.0625 0  0.59375 0.0625 0  0.625 0.0625 0  0.65625 0.0625 0  0.6875 0.0625 0  0.71875 0.0625 0  0.75 0.0625 0  0.78125 0.0625 0  0.8125 0.0625 0  0.84375 0.0625 0  0.875 0.0625 0  0.90625 0.0625 0  0.9375 0.0625 0  0.96875 0.0625 0  1 0.0625 0  0 0.09375 0  0.03125 0.09375 0  0.0625 0.09375 0  0.09375 0.09375 0  0.125 0.09375 0  0.15625 0.09375 0  0.1875 0.09375 0  0.21875 0.09375 0  0.25 0.09375 0  0.28125 0.09375 0  0.3125 0.09375 0  0.34375 0.09375 0  0.375 0.09375 0  0.40625 0.09375 0  0.4375 0.09375 0  0.46875 0.09375 0  0.5 0.09375 0  0.53125 0.09375 0  0.5625 0.09375 0  0.59375 0.09375 0  0.625 0.09375 0  0.65625 0.09375 0  0.6875 0.09375 0  0.71875 0.09375 0  0.75 0.09375 0  0.78125 0.09375 0  0.8125 0.09375 0  0.84375 0.09375 0  0.875 0.09375 0  0.90625 0.09375 0  0.9375 0.09375 0  0.96875 0.09375 0  1 0.09375 0  0 0.125 0  0.03125 0.125 0  0.0625 0.125 0  0.09375 0.125 0  0.125 0.125 0  0.15625 0.125 0  0.1875 0.125 0  0.21875 0.125 0  0.25 0.125 0  0.28125 0.125 0  0.3125 0.125 0  0.34375 0.125 0  0.375 0.125 0  0.40625 0.125 0  0.4375 0.125 0  0.46875 0.125 0  0.5 0.125 0  0.53125 0.125 0  0.5625 0.125 0  0.59375 0.125 0  0.625 0.125 0  0.65625 0.125 0  0.6875 0.125 0  0.71875 0.125 0  0.75 0.125 0  0.78125 0.125 0  0.8125 0.125 0  0.84375 0.125 0  0.875 0.125 0  0.90625 0.125 0  0.9375 0.125 0  0.96875 0.125 0  1 0.125 0  0 0.15625 0  0.03125 0.15625 0  0.0625 0.15625 0  0.09375 0.15625 0  0.125 0.15625 0  0.15625 0.15625 0  0.1875 0.15625 0  0.21875 0.15625 0  0.25 0.15625 0  0.28125 0.15625 0  0.3125 0.15625 0  0.34375 0.15625 0  0.375 0.15625 0  0.40625 0.15625 0  0.4375 0.15625 0  0.46875 0.15625 0  0.5 0.15625 0  0.53125 0.15625 0  0.5625 0.15625 0  0.59375 0.15625 0  0.625 0.15625 0  0.65625 0.15625 0  0.6875 0.15625 0  0.71875 0.15625 0  0.75 0.15625 0  0.78125 0.15625 0  0.8125 0.15625 0  0.84375 0.15625 0  0.875 0.15625 0  0.90625 0.15625 0  0.9375 0.15625 0  0.96875 0.15625 0  1 0.15625 0  0 0.1875 0  0.03125 0.1875 0  0.0625 0.1875 0  0.09375 0.1875 0  0.125 0.1875 0  0.15625 0.1875 0  0.1875 0.1875 0  0.21875 0.1875 0  0.25 0.1875 0  0.28125 0.1875 0  0.3125 0.1875 0  0.34375 0.1875 0  0.375 0.1875 0  0.40625 0.1875 0  0.4375 0.1875 0  0.46875 0.1875 0  0.5 0.1875 0  0.53125 0.1875 0  0.5625 0.1875 0  0.59375 0.1875 0  0.625 0.1875 0  0.65625 0.1875 0  0.6875 0.1875 0  0.71875 0.1875 0  0.75 0.1875 0  0.78125 0.1875 0  0.8125 0.1875 0  0.84375 0.1875 0  0.875 0.1875 0  0.90625 0.1875 0  0.9375 0.1875 0  0.96875 0.1875 0  1 0.1875 0  0 0.21875 0  0.03125 0.21875 0  0.0625 0.21875 0  0.09375 0.21875 0  0.125 0.21875 0  0.15625 0.21875 0  0.1875 0.21875 0  0.21875 0.21875 0  0.25 0.21875 0  0.28125 0.21875 0  0.3125 0.21875 0  0.34375 0.21875 0  0.375 0.21875 0  0.40625 0.21875 0  0.4375 0.21875 0  0.46875 0.21875 0  0.5 0.21875 0  0.53125 0.21875 0  0.5625 0.21875 0  0.59375 0.21875 0  0.625 0.21875 0  0.65625 0.21875 0  0.6875 0.21875 0  0.71875 0.21875 0  0.75 0.21875 0  0.78125 0.21875 0  0.8125 0.21875 0  0.84375 0.21875 0  0.875 0.21875 0  0.90625 0.21875 0  0.9375 0.21875 0  0.96875 0.21875 0  1 0.21875 0  0 0.25 0  0.03125 0.25 0  0.0625 0.25 0  0.09375 0.25 0  0.125 0.25 0  0.15625 0.25 0  0.1875 0.25 0  0.21875 0.25 0  0.25 0.25 0  0.28125 0.25 0  0.3125 0.25 0  0.34375 0.25 0  0.375 0.25 0  0.40625 0.25 0  0.4375 0.25 0  0.46875 0.25 0  0.5 0.25 0  0.53125 0.25 0  0.5625 0.25 0  0.59375 0.25 0  0.625 0.25 0  0.65625 0.25 0  0.6875 0.25 0  0.71875 0.25 0  0.75 0.25 0  0.78125 0.25 0  0.8125 0.25 0  0.84375 0.25 0  0.875 0.25 0  0.90625 0.25 0  0.9375 0.25 0  0.96875 0.25 0  1 0.25 0  0 0.28125 0  0.03125 0.28125 0  0.0625 0.28125 0  0.09375 0.28125 0  0.125 0.28125 0  0.15625 0.28125 0  0.1875 0.28125 0  0.21875 0.28125 0  0.25 0.28125 0  0.28125 0.28125 0  0.3125 0.28125 0  0.34375 0.28125 0  0.375 0.28125 0  0.40625 0.28125 0  0.4375 0.28125 0  0.46875 0.28125 0  0.5 0.28125 0  0.53125 0.28125 0  0.5625 0.28125 0  0.59375 0.28125 0  0.625 0.28125 0  0.65625 0.28125 0  0.6875 0.28125 0  0.71875 0.28125 0  0.75 0.28125 0  0.78125 0.28125 0  0.8125 0.28125 0  0.84375 0.28125 0  0.875 0.28125 0  0.90625 0.28125 0  0.9375 0.28125 0  0.96875 0.28125 0  1 0.28125 0  0 0.3125 0  0.03125 0.3125 0  0.0625 0.3125 0  0.09375 0.3125 0  0.125 0.3125 0  0.15625 0.3125 0  0.1875 0.3125 0  0.21875 0.3125 0  0.25 0.3125 0  0.28125 0.3125 0  0.3125 0.3125 0  0.34375 0.3125 0  0.375 0.3125 0  0.40625 0.3125 0  0.4375 0.3125 0  0.46875 0.3125 0  0.5 0.3125 0  0.53125 0.3125 0  0.5625 0.3125 0  0.59375 0.3125 0  0.625 0.3125 0  0.65625 0.3125 0  0.6875 0.3125 0  0.71875 0.3125 0  0.75 0.3125 0  0.78125 0.3125 0  0.8125 0.3125 0  0.84375 0.3125 0  0.875 0.3125 0  0.90625 0.3125 0  0.9375 0.3125 0  0.96875 0.3125 0  1 0.3125 0  0 0.34375 0  0.03125 0.34375 0  0.0625 0.34375 0  0.09375 0.34375 0  0.125 0.34375 0  0.15625 0.34375 0  0.1875 0.34375 0  0.21875 0.34375 0  0.25 0.34375 0  0.28125 0.34375 0  0.3125 0.34375 0  0.34375 0.34375 0  0.375 0.34375 0  0.40625 0.34375 0  0.4375 0.34375 0  0.46875 0.34375 0  0.5 0.34375 0  0.53125 0.34375 0  0.5625 0.34375 0  0.59375 0.34375 0  0.625 0.34375 0  0.65625 0.34375 0  0.6875 0.34375 0  0.71875 0.34375 0  0.75 0.34375 0  0.78125 0.34375 0  0.8125 0.34375 0  0.84375 0.34375 0  0.875 0.34375 0  0.90625 0.34375 0  0.9375 0.34375 0  0.96875 0.34375 0  1 0.34375 0  0 0.375 0  0.03125 0.375 0  0.0625 0.375 0  0.09375 0.375 0  0.125 0.375 0  0.15625 0.375 0  0.1875 0.375 0  0.21875 0.375 0  0.25 0.375 0  0.28125 0.375 0  0.3125 0.375 0  0.34375 0.375 0  0.375 0.375 0  0.40625 0.375 0  0.4375 0.375 0  0.46875 0.375 0  0.5 0.375 0  0.53125 0.375 0  0.5625 0.375 0  0.59375 0.375 0  0.625 0.375 0  0.65625 0.375 0  0.6875 0.375 0  0.71875 0.375 0  0.75 0.375 0  0.78125 0.375 0  0.8125 0.375 0  0.84375 0.375 0  0.875 0.375 0  0.90625 0.375 0  0.9375 0.375 0  0.96875 0.375 0  1 0.375 0  0 0.40625 0  0.03125 0.40625 0  0.0625 0.40625 0  0.09375 0.40625 0  0.125 0.40625 0  0.15625 0.40625 0  0.1875 0.40625 0  0.21875 0.40625 0  0.25 0.40625 0  0.28125 0.40625 0  0.3125 0.40625 0  0.34375 0.40625 0  0.375 0.40625 0  0.40625 0.40625 0  0.4375 0.40625 0  0.46875 0.40625 0  0.5 0.40625 0  0.53125 0.40625 0  0.5625 0.40625 0  0.59375 0.40625 0  0.625 0.40625 0  0.65625 0.40625 0  0.6875 0.40625 0  0.71875 0.40625 0  0.75 0.40625 0  0.78125 0.40625 0  0.8125 0.40625 0  0.84375 0.40625 0  0.875 0.40625 0  0.90625 0.40625 0  0.9375 0.40625 0  0.96875 0.40625 0  1 0.40625 0  0 0.4375 0  0.03125 0.4375 0  0.0625 0.4375 0  0.09375 0.4375 0  0.125 0.4375 0  0.15625 0.4375 0  0.1875 0.4375 0  0.21875 0.4375 0  0.25 0.4375 0  0.28125 0.4375 0  0.3125 0.4375 0  0.34375 0.4375 0  0.375 0.4375 0  0.40625 0.4375 0  0.4375 0.4375 0  0.46875 0.4375 0  0.5 0.4375 0  0.53125 0.4375 0  0.5625 0.4375 0  0.59375 0.4375 0  0.625 0.4375 0  0.65625 0.4375 0  0.6875 0.4375 0  0.71875 0.4375 0  0.75 0.4375 0  0.78125 0.4375 0  0.8125 0.4375 0  0.84375 0.4375 0  0.875 0.4375 0  0.90625 0.4375 0  0.9375 0.4375 0  0.96875 0.4375 0  1 0.4375 0  0 0.46875 0  0.03125 0.46875 0  0.0625 0.46875 0  0.09375 0.46875 0  0.125 0.46875 0  0.15625 0.46875 0  0.1875 0.46875 0  0.21875 0.46875 0  0.25 0.46875 0  0.28125 0.46875 0  0.3125 0.46875 0  0.34375 0.46875 0  0.375 0.46875 0  0.40625 0.46875 0  0.4375 0.46875 0  0.46875 0.46875 0  0.5 0.46875 0  0.53125 0.46875 0  0.5625 0.46875 0  0.59375 0.46875 0  0.625 0.46875 0  0.65625 0.46875 0  0.6875 0.46875 0  0.71875 0.46875 0  0.75 0.46875 0  0.78125 0.46875 0  0.8125 0.46875 0  0.84375 0.46875 0  0.875 0.46875 0  0.90625 0.46875 0  0.9375 0.46875 0  0.96875 0.46875 0  1 0.46875 0  0 0.5 0  0.03125 0.5 0  0.0625 0.5 0  0.09375 0.5 0  0.125 0.5 0  0.15625 0.5 0  0.1875 0.5 0  0.21875 0.5 0  0.25 0.5 0  0.28125 0.5 0  0.3125 0.5 0  0.34375 0.5 0  0.375 0.5 0  0.40625 0.5 0  0.4375 0.5 0  0.46875 0.5 0  0.5 0.5 0  0.53125 0.5 0  0.5625 0.5 0  0.59375 0.5 0  0.625 0.5 0  0.65625 0.5 0  0.6875 0.5 0  0.71875 0.5 0  0.75 0.5 0  0.78125 0.5 0  0.8125 0.5 0  0.84375 0.5 0  0.875 0.5 0  0.90625 0.5 0  0.9375 0.5 0  0.96875 0.5 0  1 0.5 0  0 0.53125 0  0.03125 0.53125 0  0.0625 0.53125 0  0.09375 0.53125 0  0.125 0.53125 0  0.15625 0.53125 0  0.1875 0.53125 0  0.21875 0.53125 0  0.25 0.53125 0  0.28125 0.53125 0  0.3125 0.53125 0  0.34375 0.53125 0  0.375 0.53125 0  0.40625 0.53125 0  0.4375 0.53125 0  0.46875 0.53125 0  0.5 0.53125 0  0.53125 0.53125 0  0.5625 0.53125 0  0.59375 0.53125 0  0.625 0.53125 0  0.65625 0.53125 0  0.6875 0.53125 0  0.71875 0.53125 0  0.75 0.53125 0  0.78125 0.531
[...]
<PointData  Scalars="phi"> 
<DataArray  type="Float64"  Name="phi"  format="ascii">0.0000000000000000e+00  0.0000000000000000e+00  0.0000000000000000e+00  0.0000000000000000e+00  0.0000000000000000e+00  0.0000000000000000e+00  0.0000000000000000e+00  0.0000000000000000e+00  0.0000000000000000e+00  0.0000000000000000e+00  0.0000000000000000e+00  0.0000000000000000e+00  0.0000000000000000e+00  0.0000000000000000e+00  0.0000000000000000e+00  0.0000000000000000e+00  0.0000000000000000e+00  0.0000000000000000e+00  0.0000000000000000e+00  0.0000000000000000e+00  0.0000000000000000e+00  0.0000000000000000e+00  0.0000000000000000e+00  0.0000000000000000e+00  0.0000000000000000e+00  0.0000000000000000e+00  0.0000000000000000e+00  0.0000000000000000e+00  0.0000000000000000e+00  0.0000000000000000e+00  0.0000000000000000e+00  0.0000000000000000e+00  0.0000000000000000e+00  0.0000000000000000e+00  3.1835580344601205e-09  6.2252461611789566e-09  9.0165163038742330e-09  1.1454082633612608e-08  1.3446378525688271e-08  1.4917967229908936e-08  1.5812814271899764e-08  1.6096630190901820e-08  1.5758307659444888e-08  1.4810439754416758e-08  1.3288915232754971e-08  1.1251611565178283e-08  8.7762365552719600e-09  5.9574000691408387e-09  2.9030262370035406e-09  -2.6975820593788082e-10  -3.4391032460528046e-09  -6.4831116003111060e-09  -9.2845320547774369e-09  -1.1735289260374447e-08  -1.3740674600793840e-08  -1.5223035132705563e-08  -1.6124816524903470e-08  -1.6410840825850800e-08  -1.6069730083436323e-08  -1.5114421716649951e-08  -1.3581761038446320e-08  -1.1531202260831545e-08  -9.0427093801163684e-09  -6.2140496608102749e-09  -3.1579105799879773e-09  0.0000000000000000e+00  0.0000000000000000e+00  6.2252461611789467e-09  1.2185829017506693e-08  1.7660906322650174e-08  2.2445271346181913e-08  2.6358239713508163e-08  2.9251239145459772e-08  3.1013905776816128e-08  3.1578576613378424e-08  3.0923077847136861e-08  2.9071737216890118e-08  2.6094596350018343e-08  2.2104857457375923e-08  1.7254661115735252e-08  1.1729353406698903e-08  5.7404578410621968e-09  -4.8238253277885872e-10  -6.7001869428134594e-09  -1.2673807524060474e-08  -1.8173137058507534e-08  -2.2985998950984842e-08  -2.6926375140879340e-08  -2.9841651741081210e-08  -3.1618599080849203e-08  -3.2187851336799979e-08  -3.1526709556328174e-08  -2.9660158961752462e-08  -2.6660065548415809e-08  -2.2642597619610894e-08  -1.7764006401324642e-08  -1.2214999732443255e-08  -6.2140496608102774e-09  0.0000000000000000e+00  0.0000000000000000e+00  9.0165163038741933e-09  1.7660906322650128e-08  2.5607707827523144e-08  3.2556532158693689e-08  3.8243695281004239e-08  4.2452596873782744e-08  4.5022288350358321e-08  4.5853878833919159e-08  4.4914542228225062e-08  4.2238980525068053e-08  3.7928290050800166e-08  3.2146271653271506e-08  2.5113320467732514e-08  1.7098122116649676e-08  8.4074661449169066e-09  -6.2543937896903051e-10  -9.6537089420892423e-09  -1.8330090405351695e-08  -2.6320335156569766e-08  -3.3316112239107231e-08  -3.9046966082655607e-08  -4.3290852054331915e-08  -4.5882837156604380e-08  -4.6721623029543638e-08  -4.5773632554849930e-08  -4.3074496887932362e-08  -3.8727883333382057e-08  -3.2901712300749219e-08  -2.5821918412540645e-08  -1.7764006401324649e-08  -9.0427093801163750e-09  0.0000000000000000e+00  0.0000000000000000e+00  1.1454082633612512e-08  2.2445271346181761e-08  3.2556532158693563e-08  4.1403620281384235e-08  4.8649575086493878e-08  5.4017652180489720e-08  5.7302060902242388e-08  5.8376035800529145e-08  5.7196908069449710e-08  5.3807969990615092e-08  4.8337050728771717e-08  4.0991847208311926e-08  3.2052177233503500e-08  2.1859439786048413e-08  1.0803675302154993e-08  -6.9128746333595557e-10  -1.2184035391435225e-08  -2.3232508148762774e-08  -3.3411019211025887e-08  -4.2326704568772953e-08  -4.9634761431862111e-08  -5.5051882700472515e-08  -5.8367359949339169e-08  -5.9451415817682545e-08  -5.8260432768259557e-08  -5.4838865115153718e-08  -4.9317750140937182e-08  -4.1909866108282620e-08  -3.2901712300749252e-08  -2.2642597619610924e-08  -1.1531202260831561e-08  0.0000000000000000e+00  0.0000000000000000e+00  1.3446378525688082e-08  2.6358239713507855e-08  3.8243695281003902e-08  4.8649575086493620e-08  5.7178469371721883e-08  6.3503856040209889e-08  6.7382659141553468e-08  6.8664705982837583e-08  6.7298687454849429e-08  6.3334369838621703e-08  5.6920953908907796e-08  4.8301626026376710e-08  3.7804492399839921e-08  2.5830227238629335e-08  1.2836893210379941e-08  -6.7749631158548147e-10  -1.4194013628424322e-08  -2.7192726671161094e-08  -3.9172719423999153e-08  -4.9671450839306802e-08  -5.8282701246866092e-08  -6.4672405587129568e-08  -6.8591750804948277e-08  -6.9887017620435412e-08  -6.8505770766362116e-08  -6.4499141764160232e-08  -5.8020098568774813e-08  -4.9317750140937248e-08  -3.8727883333382136e-08  -2.6660065548415878e-08  -1.3581761038446356e-08  0.0000000000000000e+00  0.0000000000000000e+00  1.4917967229908632e-08  2.9251239145459236e-08  4.2452596873782089e-08  5.4017652180489065e-08  6.3503856040209439e-08  7.0547316571363836e-08  7.4876750490901858e-08  7.6323999651906863e-08  7.4830679687218348e-08  7.0450679521750485e-08  6.3348391479103985e-08  5.3792716334381449e-08  4.2147050521511042e-08  2.8855618195019176e-08  1.4426653360391907e-08  -5.8693854129733968e-10  -1.5608709226450454e-08  -3.0060782265043488e-08  -4.3386106499683770e-08  -5.5069989910045590e-08  -6.4660077932247677e-08  -7.1783995198262975e-08  -7.6163955461240557e-08  -7.7627758022271296e-08  -7.6115725979278785e-08  -7.1683296700741949e-08  -6.4499141764160338e-08  -5.4838865115153863e-08  -4.3074496887932501e-08  -2.9660158961752578e-08  -1.5114421716650013e-08  0.0000000000000000e+00  0.0000000000000000e+00  1.5812814271899294e-08  3.1013905776815254e-08  4.5022288350357189e-08  5.7302060902241183e-08  6.7382659141552370e-08  7.4876750490901170e-08  7.9495077988057619e-08  8.1057664602878078e-08  7.9500924412725109e-08  7.4880382192463014e-08  6.7368870492986441e-08  5.7250246420426682e-08  4.4908842625572065e-08  3.0815032125624699e-08  1.5507438339100457e-08  -4.2754568870568678e-10  -1.6378156676300632e-08  -3.1730727486203745e-08  -4.5893321602125566e-08  -5.8318623911216482e-08  -6.8525198363487398e-08  -7.6116280229639038e-08  -8.0795360743235120e-08  -8.2377941669640937e-08  -8.0798982305873863e-08  -7.6115725979278904e-08  -6.8505770766362341e-08  -5.8260432768259815e-08  -4.5773632554850168e-08  -3.1526709556328359e-08  -1.6069730083436412e-08  0.0000000000000000e+00  0.0000000000000000e+00  1.6096630190901132e-08  3.1578576613377153e-08  4.5853878833917425e-08  5.8376035800527180e-08  6.8664705982835624e-08  7.6323999651905195e-08  8.1057664602877033e-08  8.2680572480430861e-08  8.1126046337467352e-08  7.6448724282695873e-08  6.8822822028342195e-08  5.8535831936375320e-08  4.5977870993339884e-08  3.1627058354467388e-08  1.6031458248311673e-08  -2.1173991062297854e-10  -1.6479020808779594e-08  -3.2144456075985267e-08  -4.6603815029310816e-08  -5.9297942841056197e-08  -6.9734496835183096e-08  -7.7507188417591863e-08  -8.2311768757321248e-08  -8.3958117563851440e-08  -8.2377941669641136e-08  -7.7627758022271614e-08  -6.9887017620435809e-08  -5.9451415817682935e-08  -4.6721623029543975e-08  -3.2187851336800231e-08  -1.6410840825850939e-08  0.0000000000000000e+00  0.0000000000000000e+00  1.5758307659443945e-08  3.0923077847135087e-08  4.4914542228222607e-08  5.7196908069446805e-08  6.7298687454846372e-08  7.4830679687215489e-08  7.9500924412722766e-08  8.1126046337465962e-08  7.9638540948089604e-08  7.5089699153465918e-08  6.7648031136572288e-08  5.7593219483898751e-08  4.5305802244277266e-08  3.1252951380109122e-08  1.5970864719570947e-08  4.4423988743949223e-11  -1.5915117618213070e-08  -3.1293572194670914e-08  -4.5497481196813192e-08  -5.7977093206709964e-08  -6.8247760506386650e-08  -7.5908913479470448e-08  -8.0659859241463100e-08  -8.2311768757321486e-08  -8.0795360743235583e-08  -7.6163955461241126e-08  -6.8591750804948846e-08  -5.8367359949339719e-08  -4.5882837156604843e-08  -3.1618599080849548e-08  -1.6124816524903652e-08  0.0000000000000000e+00  0.0000000000000000e+00  1.4810439754415540e-08  2.9071737216887782e-08  4.2238980525064771e-08  5.3807969990611121e-08  6.3334369838617389e-08  7.0450679521746197e-08  7.4880382192459109e-08  7.6448724282692829e-08  7.5089699153464198e-08  7.0848945251659312e-08  6.3882419981038377e-08  5.4450868807846933e-08  4.2910268917225361e-08  2.9698581859685392e-08  1.5319294029659038e-08  3.2235176623011268e-10  -1.4716795850767250e-08  -2.9219253297556192e-08  -4.2624990346675355e-08  -5.4414547331174602e-08  -6.4129287158432179e-08  -7.1389395803267584e-08  -7.5908913479470766e-08  -7.7507188417592419e-08  -7.6116280229639765e-08  -7.1783995198263769e-08  -6.4672405587130388e-08  -5.5051882700473263e-08  -4.3290852054332537e-08  -2.9841651741081654e-08  -1.5223035132705795e-08  0.0000000000000000e+00  0.0000000000000000e+00  1.3288915232753431e-08  2.6094596350015368e-08  3.7928290050795957e-08  4.8337050728766562e-08  5.6920953908902066e-08  6.3348391479098043e-08  6.7368870492980723e-08  6.8822822028337193e-08  6.7648031136568530e-08  6.3882419981036313e-08  5.7663049598828859e-08  4.9221346458632334e-08  3.8874702856237304e-08  2.7014739731065194e-08  1.4092651258821762e-08  6.0216734943072725e-10  -1.2939231854500805e-08  -2.6010140421118207e-08  -3.8105332395697631e-08  -4.8755371547149837e-08  -5.7544958211542386e-08  -6.4129287158432550e-08  -6.8247760506387338e-08  -6.9734496835183995e-08  -6.8525198363488430e-08  -6.4660077932248762e-08  -5.8282701246867138e-08  -4.9634761431863064e-08  -3.9046966082656375e-08  -2.6926375140879896e-08  -1.3740674600794127e-08  0.0000000000000000e+00  0.0000000000000000e+00  1.1251611565176405e-08  2.2104857457372280e-08  3.2146271653266292e-08  4.0991847208305474e-08  4.8301626026369391e-08  5.3792716334373693e-08  5.7250246420418966e-08  5.8535831936368167e-08  5.7593219483892703e-08  5.4450868807842486e-08  4.9221346458629906e-08  4.2097521399961149e-08  3.3345673444005259e-08  2.3295744051993834e-08  1.2329071324217301e-08  8.6405240016263722e-10  -1.0659737238852987e-08  -2.1798370697949659e-08  -3.2120700621228585e-08  -4.1225131003397428e-08  -4.8755371547150261e-08  -5.4414547331175409e-08  -5.7977093206711075e-08  -5.9297942841057488e-08  -5.8318623911217871e-08  -5.5069989910047000e-08  -4.9671450839308139e-08  -4.2326704568774118e-08  -3.3316112239108178e-08  -2.2985998950985510e-08  -1.1735289260374795e-08  0.0000000000000000e+00  0.0000000000000000e+00  8.7762365552697315e-09  1.7254661115730911e-08  2.5113320467726270e-08  3.2052177233495671e-08  3.7804492399830928e-08  4.2147050521501334e-08  4.4908842625562192e-08  4.5977870993330375e-08  4.5305802244268697e-08  4.2910268917218254e-08  3.8874702856232162e-08  3.3345673444002499e-08  2.6527796940635851e-08  1.8676376428886926e-08  1.0088021518437404e-08  1.0895793769706479e-09  -7.9742196800076531e-09  -1.6753941123389136e-08  -2.4908947832664183e-08  -3.2120700621229075e-08  -3.8105332395698518e-08  -4.2624990346676606e-08  -4.5497481196814721e-08  -4.6603815029312484e-08  -4.5893321602127306e-08  -4.3386106499685484e-08  -3.9172719424000761e-08  -3.3411019211027284e-08  -2.6320335156570888e-08  -1.8173137058508318e-08  -9.2845320547778422e-09  0.0000000000000000e+00  0.0000000000000000e+00  5.9574000691382455e-09  1.1729353406693837e-08  1.7098122116642367e-08  2.1859439786039195e-08  2.5830227238618647e-08  2.8855618195007503e-08  3.0815032125612589e-08  3.1627058354455424e-08  3.1252951380097905e-08  2.9698581859675499e-08  2.7014739731057150e-08  2.3295744051988123e-08  1.8676376428883925e-08  1.3327219162389027e-08  7.4485429646173941e-09  1.2629496627273537e-09  -4.9929699827243784e-09  -1.1077656935315404e-08  -1.6753941123389675e-08  -2.1798370697950668e-08  -2.6010140421119613e-08  -2.9219253297557926e-08  -3.1293572194672892e-08  -3.2144456075987365e-08  -3.1730727486205882e-08  -3.0060782265045553e-08  -2.7192726671162990e-08  -2.3232508148764415e-08  -1.8330090405353005e-08  -1.2673807524061380e-08  -6.4831116003115709e-09  0.0000000000000000e+00  0.0000000000000000e+00  2.9030262370005904e-09  5.7404578410564198e-09  8.4074661449085471e-09  1.0803675302144401e-08  1.2836893210367569e-08  1.4426653360378262e-08  1.5507438339086111e-08  1.6031458248297233e-08  1.5970864719557051e-08  1.5319294029646300e-08  1.4092651258810739e-08  1.2329071324208503e-08  1.0088021518431246e-08  7.4485429646142095e-09  4.5066639002882384e-09  1.3720543705564525e-09  -1.8359720128742734e-09  -4.9929699827249450e-09  -7.9742196800087466e-09  -1.0659737238854541e-08  -1.2939231854502751e-08  -1.4716795850769485e-08  -1.5915117618215501e-08  -1.6479020808782125e-08  -1.6378156676303153e-08  -1.5608709226452850e-08  -1.4194013628426496e-08  -1.2184035391437094e-08  -9.6537089420907246e-09  -6.7001869428144827e-09  -3.4391032460533257e-09  0.0000000000000000e+00  0.0000000000000000e+00  -2.6975820594116690e-10  -4.8238253278530380e-10  -6.2543937897838644e-10  -6.9128746334785808e-10  -6.7749631159947354e-10  -5.8693854131288882e-10  -4.2754568872219855e-10  -2.1173991063981748e-10  4.4423988727433108e-11  3.2235176621455998e-10  6.0216734941673694e-10  8.6405240015074371e-10  1.0895793769613040e-09  1.2629496627209198e-09  1.3720543705531728e-09  1.4092870983394938e-09  1.3720543705558733e-09  1.2629496627262161e-09  1.0895793769689968e-09  8.6405240016053804e-10  6.0216734942826484e-10  3.2235176622738278e-10  4.4423988741053522e-11  -2.1173991062593106e-10  -4.2754568870858383e-10  -5.8693854130006648e-10  -6.7749631158793334e-10  -6.9128746333804823e-10  -6.2543937897067929e-10  -4.8238253277999588e-10  -2.6975820593846062e-10  0.0000000000000000e+00  0.0000000000000000e+00  -3.4391032460563946e-09  -6.7001869428205128e-09  -9.6537089420995043e-09  -1.2184035391448322e-08  -1.4194013628439790e-08  -1.5608709226467752e-08  -1.6378156676319147e-08  -1.6479020808798672e-08  -1.5915117618232045e-08  -1.4716795850785462e-08  -1.2939231854517632e-08  -1.0659737238867860e-08  -7.9742196800200922e-09  -4.9929699827340035e-09  -1.8359720128808040e-09  1.3720543705525929e-09  4.5066639002870853e-09  7.4485429646156942e-09  1.0088021518435203e-08  1.2329071324214674e-08  1.4092651258818797e-08  1.5319294029655849e-08  1.5970864719567628e-08  1.6031458248308327e-08  1.5507438339097215e-08  1.4426653360388883e-08  1.2836893210377241e-08  1.0803675302152694e-08  8.4074661449151017e-09  5.7404578410609552e-09  2.9030262370029082e-09  0.0000000000000000e+00  0.0000000000000000e+00  -6.4831116003149557e-09  -1.2673807524068046e-08  -1.8330090405362733e-08  -2.3232508148776916e-08  -2.7192726671177866e-08  -3.0060782265062322e-08  -3.1730727486224034e-08  -3.2144456076006344e-08  -3.1293572194692109e-08  -2.9219253297576816e-08  -2.6010140421137612e-08  -2.1798370697967278e-08  -1.6753941123404465e-08  -1.1077656935328030e-08  -4.9929699827345668e-09  1.2629496627197841e-09  7.4485429646125071e-09  1.3327219162386795e-08  1.8676376428884216e-08  2.3295744051990724e-08  2.7014739731061786e-08  2.9698581859681788e-08  3.1252951380105429e-08  3.1627058354463715e-08  3.0815032125621165e-08  2.8855618195015891e-08  2.5830227238626410e-08  2.1859439786045938e-08  1.7098122116647737e-08  1.1729353406697574e-08  5.9574000691401613e-09  0.0000000000000000e+00  0.0000000000000000e+00  -9.2845320547814934e-09  -1.8173137058515515e-08  -2.6320335156581423e-08  -3.3411019211040843e-08  -3.9172719424016954e-08  -4.3386106499703854e-08  -4.5893321602147304e-08  -4.6603815029333554e-08  -4.5497481196836261e-08  -4.2624990346698053e-08  -3.8105332395719277e-08  -3.2120700621248623e-08  -2.4908947832682083e-08  -1.6753941123405001e-08  -7.9742196800211841e-09  1.0895793769596571e-09  1.0088021518429051e-08  1.8676376428881218e-08  2.6527796940632697e-08  3.3345673444001719e-08  3.8874702856233512e-08  4.2910268917221410e-08  4.5305802244273263e-08  4.5977870993335934e-08  4.4908842625568280e-08  4.2147050521507528e-08  3.7804492399836791e-08  3.2052177233500866e-08  2.5113320467730466e-08  1.7254661115733850e-08  8.7762365552712469e-09  0.0000000000000000e+00  0.0000000000000000e+00  -1.1735289260378646e-08  -2.2985998950993113e-08  -3.3316112239119308e-08  -4.2326704568788498e-08  -4.9671450839325351e-08  -5.5069989910066581e-08  -5.8318623911239299e-08  -5.9297942841080179e-08  -5.7977093206734442e-08  -5.4414547331198894e-08  -4.8755371547173270e-08  -4.1225131003419418e-08  -3.2120700621249113e-08  -2.1798370697968291e-08  -1.0659737238869410e-08  8.6405240014865156e-10  1.2329071324205881e-08  2.3295744051985016e-08  3.3345673443998986e-08  4.2097521399957291e-08  4.9221346458628251e-08  5.4450868807842731e-08  5.7593219483894529e-08  5.8535831936371171e-08  5.7250246420422724e-08  5.3792716334377776e-08  4.8301626026373454e-08  4.0991847208309193e-08  3.2146271653269362e-08  2.2104857457374461e-08  1.1251611565177538e-08  0.0000000000000000e+00  0.0000000000000000e+00  -1.3740674600798103e-08  -2.6926375140887747e-08  -3.9046966082667902e-08  -4.9634761431877947e-08  -5.8282701246884991e-08  -6.4660077932269157e-08  -6.8525198363510850e-08  -6.9734496835207818e-08  -6.8247760506412021e-08  -6.4129287158457524e-08  -5.7544958211567049e-08  -4.8755371547173687e-08  -3.8105332395720184e-08  -2.6010140421139022e-08  -1.2939231854519561e-08  6.0216734941428745e-10  1.4092651258807789e-08  2.7014739731053762e-08  3.8874702856228390e-08  4.9221346458625829e-08  5.7663049598824577e-08  6.3882419981033997e-08  6.7648031136567894e-08  6.8822822028337934e-08  6.7368870492982351e-08  6.3348391479100213e-08  5.6920953908904468e-08  4.8337050728768904e-08  3.7928290050797982e-08  2.6094596350016847e-08  1.3288915232754208e-08  0.0000000000000000e+00  0.0000000000000000e+00  -1.5223035132709811e-08  -2.9841651741089588e-08  -4.3290852054344191e-08  -5.5051882700488350e-08  -6.4672405587148547e-08  -7.1783995198284521e-08  -7.6116280229662635e-08  -7.7507188417616824e-08  -7.5908913479496163e-08  -7.1389395803293445e-08  -6.4129287158457881e-08  -5.4414547331199662e-08  -4.2624990346699277e-08  -2.9219253297578536e-08  -1.4716795850787682e-08  3.2235176621185184e-10  1.5319294029643126e-08  2.9698581859671925e-08  4.2910268917214343e-08  5.4450868807838291e-08  6.3882419981031919e-08  7.0848945251654826e-08  7.5089699153461445e-08  7.6448724282691532e-08  7.4880382192458871e-08  7.0450679521746686e-08  6.3334369838618342e-08  5.3807969990612253e-08  4.2238980525065843e-08  2.9071737216888612e-08  1.4810439754415993e-08  0.0000000000000000e+00  0.0000000000000000e+00  -1.6124816524907612e-08  -3.1618599080857383e-08  -4.5882837156616378e-08  -5.8367359949354661e-08  -6.8591750804966859e-08  -7.6163955461261786e-08  -8.0795360743258334e-08  -8.2311768757345891e-08  -8.0659859241488577e-08  -7.5908913479496468e-08  -6.8247760506412670e-08  -5.7977093206735494e-08  -4.5497481196837750e-08  -3.1293572194694055e-08  -1.5915117618234450e-08  4.4423988724565130e-11  1.5970864719553768e-08  3.1252951380094266e-08  4.5305802244264759e-08  5.7593219483888521e-08  6.7648031136564162e-08  7.5089699153459764e-08  7.9638540948085171e-08  8.1126046337462998e-08  7.9500924412720980e-08  7.4830679687214576e-08  6.7298687454846107e-08  5.7196908069446911e-08  4.4914542228222858e-08  3.0923077847135378e-08  1.5758307659444127e-08  0.0000000000000000e+00  0.0000000000000000e+00  -1.6410840825854757e-08  -3.2187851336807794e-08  -4.6721623029555106e-08  -5.9451415817697375e-08  -6.9887017620453227e-08  -7.7627758022291625e-08  -8.2377941669663251e-08  -8.3958117563875184e-08  -8.2311768757346116e-08  -7.7507188417617353e-08  -6.9734496835208692e-08  -5.9297942841081430e-08  -4.6603815029335228e-08  -3.2144456076008435e-08  -1.6479020808801180e-08  -2.1173991064273580e-10  1.6031458248293938e-08  3.1627058354451797e-08  4.5977870993326471e-08  5.8535831936364051e-08  6.8822822028332957e-08  7.644872428