<?xml version="1.0"?>
<VTKFile type="UnstructuredGrid"  version="0.1"  >
<UnstructuredGrid>
<Piece  NumberOfPoints="1089" NumberOfCells="2048">
<Points>
<DataArray  type="Float64"  NumberOfComponents="3"  format="ascii">0 0 0  0.03125 0 0  0.0625 0 0  0.09375 0 0  0.125 0 0  0.15625 0 0  0.1875 0 0  0.21875 0 0  0.25 0 0  0.28125 0 0  0.3125 0 0  0.34375 0 0  0.375 0 0  0.40625 0 0  0.4375 0 0  0.46875 0 0  0.5 0 0  0.53125 0 0  0.5625 0 0  0.59375 0 0  0.625 0 0  0.65625 0 0  0.6875 0 0  0.71875 0 0  0.75 0 0  0.78125 0 0  0.8125 0 0  0.84375 0 0  0.875 0 0  0.90625 0 0  0.9375 0 0  0.96875 0 0  1 0 0  0 0.03125 0  0.03125 0.03125 0  0.0625 0.03125 0  0.09375 0.03125 0  0.125 0.03125 0  0.15625 0.03125 0  0.1875 0.03125 0  0.21875 0.03125 0  0.25 0.03125 0  0.28125 0.03125 0  0.3125 0.03125 0  0.34375 0.03125 0  0.375 0.03125 0  0.40625 0.03125 0  0.4375 0.03125 0  0.46875 0.03125 0  0.5 0.03125 0  0.53125 0.03125 0  0.5625 0.03125 0  0.59375 0.03125 0  0.625 0.03125 0  0.65625 0.03125 0  0.6875 0.03125 0  0.71875 0.03125 0  0.75 0.03125 0  0.78125 0.03125 0  0.8125 0.03125 0  0.84375 0.03125 0  0.875 0.03125 0  0.90625 0.03125 0  0.9375 0.03125 0  0.96875 0.03125 0  1 0.03125 0  0 0.0625 0  0.03125 0.0625 0  0.0625 0.0625 0  0.09375 0.0625 0  0.125 0.0625 0  0.15625 0.0625 0  0.1875 0.0625 0  0.21875 0.0625 0  0.25 0.0625 0  0.28125 0.0625 0  0.3125 0.0625 0  0.34375 0.0625 0  0.375 0.0625 0  0.40625 0.0625 0  0.4375 0.0625 0  0.46875 0.0625 0  0.5 0.0625 0  0.53125 0.0625 0  0.5625 0.0625 0  0.59375 0.0625 0  0.625 0.0625 0  0.65625 0.0625 0  0.6875 0.0625 0  0.71875 0.0625 0  0.75 0.0625 0  0.78125 0.0625 0  0.8125 0.0625 0  0.84375 0.0625 0  0.875 0.0625 0  0.90625 0.0625 0  0.9375 0.0625 0  0.96875 0.0625 0  1 0.0625 0  0 0.09375 0  0.03125 0.09375 0  0.0625 0.09375 0  0.09375 0.09375 0  0.125 0.09375 0  0.15625 0.09375 0  0.1875 0.09375 0  0.21875 0.09375 0  0.25 0.09375 0  0.28125 0.09375 0  0.3125 0.09375 0  0.34375 0.09375 0  0.375 0.09375 0  0.40625 0.09375 0  0.4375 0.09375 0  0.46875 0.09375 0  0.5 0.09375 0  0.53125 0.09375 0  0.5625 0.09375 0  0.59375 0.09375 0  0.625 0.09375 0  0.65625 0.09375 0  0.6875 0.09375 0  0.71875 0.09375 0  0.75 0.09375 0  0.78125 0.09375 0  0.8125 0.09375 0  0.84375 0.09375 0  0.875 0.09375 0  0.90625 0.09375 0  0.9375 0.09375 0  0.96875 0.09375 0  1 0.09375 0  0 0.125 0  0.03125 0.125 0  0.0625 0.125 0  0.09375 0.125 0  0.125 0.125 0  0.15625 0.125 0  0.1875 0.125 0  0.21875 0.125 0  0.25 0.125 0  0.28125 0.125 0  0.3125 0.125 0  0.34375 0.125 0  0.375 0.125 0  0.40625 0.125 0  0.4375 0.125 0  0.46875 0.125 0  0.5 0.125 0  0.53125 0.125 0  0.5625 0.125 0  0.59375 0.125 0  0.625 0.125 0  0.65625 0.125 0  0.6875 0.125 0  0.71875 0.125 0  0.75 0.125 0  0.78125 0.125 0  0.8125 0.125 0  0.84375 0.125 0  0.875 0.125 0  0.90625 0.125 0  0.9375 0.125 0  0.96875 0.125 0  1 0.125 0  0 0.15625 0  0.03125 0.15625 0  0.0625 0.15625 0  0.09375 0.15625 0  0.125 0.15625 0  0.15625 0.15625 0  0.1875 0.15625 0  0.21875 0.15625 0  0.25 0.15625 0  0.28125 0.15625 0  0.3125 0.15625 0  0.34375 0.15625 0  0.375 0.15625 0  0.40625 0.15625 0  0.4375 0.15625 0  0.46875 0.15625 0  0.5 0.15625 0  0.53125 0.15625 0  0.5625 0.15625 0  0.59375 0.15625 0  0.625 0.15625 0  0.65625 0.15625 0  0.6875 0.15625 0  0.71875 0.15625 0  0.75 0.15625 0  0.78125 0.15625 0  0.8125 0.15625 0  0.84375 0.15625 0  0.875 0.15625 0  0.90625 0.15625 0  0.9375 0.15625 0  0.96875 0.15625 0  1 0.15625 0  0 0.1875 0  0.03125 0.1875 0  0.0625 0.1875 0  0.09375 0.1875 0  0.125 0.1875 0  0.15625 0.1875 0  0.1875 0.1875 0  0.21875 0.1875 0  0.25 0.1875 0  0.28125 0.1875 0  0.3125 0.1875 0  0.34375 0.1875 0  0.375 0.1875 0  0.40625 0.1875 0  0.4375 0.1875 0  0.46875 0.1875 0  0.5 0.1875 0  0.53125 0.1875 0  0.5625 0.1875 0  0.59375 0.1875 0  0.625 0.1875 0  0.65625 0.1875 0  0.6875 0.1875 0  0.71875 0.1875 0  0.75 0.1875 0  0.78125 0.1875 0  0.8125 0.1875 0  0.84375 0.1875 0  0.875 0.1875 0  0.90625 0.1875 0  0.9375 0.1875 0  0.96875 0.1875 0  1 0.1875 0  0 0.21875 0  0.03125 0.21875 0  0.0625 0.21875 0  0.09375 0.21875 0  0.125 0.21875 0  0.15625 0.21875 0  0.1875 0.21875 0  0.21875 0.21875 0  0.25 0.21875 0  0.28125 0.21875 0  0.3125 0.21875 0  0.34375 0.21875 0  0.375 0.21875 0  0.40625 0.21875 0  0.4375 0.21875 0  0.46875 0.21875 0  0.5 0.21875 0  0.53125 0.21875 0  0.5625 0.21875 0  0.59375 0.21875 0  0.625 0.21875 0  0.65625 0.21875 0  0.6875 0.21875 0  0.71875 0.21875 0  0.75 0.21875 0  0.78125 0.21875 0  0.8125 0.21875 0  0.84375 0.21875 0  0.875 0.21875 0  0.90625 0.21875 0  0.9375 0.21875 0  0.96875 0.21875 0  1 0.21875 0  0 0.25 0  0.03125 0.25 0  0.0625 0.25 0  0.09375 0.25 0  0.125 0.25 0  0.15625 0.25 0  0.1875 0.25 0  0.21875 0.25 0  0.25 0.25 0  0.28125 0.25 0  0.3125 0.25 0  0.34375 0.25 0  0.375 0.25 0  0.40625 0.25 0  0.4375 0.25 0  0.46875 0.25 0  0.5 0.25 0  0.53125 0.25 0  0.5625 0.25 0  0.59375 0.25 0  0.625 0.25 0  0.65625 0.25 0  0.6875 0.25 0  0.71875 0.25 0  0.75 0.25 0  0.78125 0.25 0  0.8125 0.25 0  0.84375 0.25 0  0.875 0.25 0  0.90625 0.25 0  0.9375 0.25 0  0.96875 0.25 0  1 0.25 0  0 0.28125 0  0.03125 0.28125 0  0.0625 0.28125 0  0.09375 0.28125 0  0.125 0.28125 0  0.15625 0.28125 0  0.1875 0.28125 0  0.21875 0.28125 0  0.25 0.28125 0  0.28125 0.28125 0  0.3125 0.28125 0  0.34375 0.28125 0  0.375 0.28125 0  0.40625 0.28125 0  0.4375 0.28125 0  0.46875 0.28125 0  0.5 0.28125 0  0.53125 0.28125 0  0.5625 0.28125 0  0.59375 0.28125 0  0.625 0.28125 0  0.65625 0.28125 0  0.6875 0.28125 0  0.71875 0.28125 0  0.75 0.28125 0  0.78125 0.28125 0  0.8125 0.28125 0  0.84375 0.28125 0  0.875 0.28125 0  0.90625 0.28125 0  0.9375 0.28125 0  0.96875 0.28125 0  1 0.28125 0  0 0.3125 0  0.03125 0.3125 0  0.0625 0.3125 0  0.09375 0.3125 0  0.125 0.3125 0  0.15625 0.3125 0  0.1875 0.3125 0  0.21875 0.3125 0  0.25 0.3125 0  0.28125 0.3125 0  0.3125 0.3125 0  0.34375 0.3125 0  0.375 0.3125 0  0.40625 0.3125 0  0.4375 0.3125 0  0.46875 0.3125 0  0.5 0.3125 0  0.53125 0.3125 0  0.5625 0.3125 0  0.59375 0.3125 0  0.625 0.3125 0  0.65625 0.3125 0  0.6875 0.3125 0  0.71875 0.3125 0  0.75 0.3125 0  0.78125 0.3125 0  0.8125 0.3125 0  0.84375 0.3125 0  0.875 0.3125 0  0.90625 0.3125 0  0.9375 0.3125 0  0.96875 0.3125 0  1 0.3125 0  0 0.34375 0  0.03125 0.34375 0  0.0625 0.34375 0  0.09375 0.34375 0  0.125 0.34375 0  0.15625 0.34375 0  0.1875 0.34375 0  0.21875 0.34375 0  0.25 0.34375 0  0.28125 0.34375 0  0.3125 0.34375 0  0.34375 0.34375 0  0.375 0.34375 0  0.40625 0.34375 0  0.4375 0.34375 0  0.46875 0.34375 0  0.5 0.34375 0  0.53125 0.34375 0  0.5625 0.34375 0  0.59375 0.34375 0  0.625 0.34375 0  0.65625 0.34375 0  0.6875 0.34375 0  0.71875 0.34375 0  0.75 0.34375 0  0.78125 0.34375 0  0.8125 0.34375 0  0.84375 0.34375 0  0.875 0.34375 0  0.90625 0.34375 0  0.9375 0.34375 0  0.96875 0.34375 0  1 0.34375 0  0 0.375 0  0.03125 0.375 0  0.0625 0.375 0  0.09375 0.375 0  0.125 0.375 0  0.15625 0.375 0  0.1875 0.375 0  0.21875 0.375 0  0.25 0.375 0  0.28125 0.375 0  0.3125 0.375 0  0.34375 0.375 0  0.375 0.375 0  0.40625 0.375 0  0.4375 0.375 0  0.46875 0.375 0  0.5 0.375 0  0.53125 0.375 0  0.5625 0.375 0  0.59375 0.375 0  0.625 0.375 0  0.65625 0.375 0  0.6875 0.375 0  0.71875 0.375 0  0.75 0.375 0  0.78125 0.375 0  0.8125 0.375 0  0.84375 0.375 0  0.875 0.375 0  0.90625 0.375 0  0.9375 0.375 0  0.96875 0.375 0  1 0.375 0  0 0.40625 0  0.03125 0.40625 0  0.0625 0.40625 0  0.09375 0.40625 0  0.125 0.40625 0  0.15625 0.40625 0  0.1875 0.40625 0  0.21875 0.40625 0  0.25 0.40625 0  0.28125 0.40625 0  0.3125 0.40625 0  0.34375 0.40625 0  0.375 0.40625 0  0.40625 0.40625 0  0.4375 0.40625 0  0.46875 0.40625 0  0.5 0.40625 0  0.53125 0.40625 0  0.5625 0.40625 0  0.59375 0.40625 0  0.625 0.40625 0  0.65625 0.40625 0  0.6875 0.40625 0  0.71875 0.40625 0  0.75 0.40625 0  0.78125 0.40625 0  0.8125 0.40625 0  0.84375 0.40625 0  0.875 0.40625 0  0.90625 0.40625 0  0.9375 0.40625 0  0.96875 0.40625 0  1 0.40625 0  0 0.4375 0  0.03125 0.4375 0  0.0625 0.4375 0  0.09375 0.4375 0  0.125 0.4375 0  0.15625 0.4375 0  0.1875 0.4375 0  0.21875 0.4375 0  0.25 0.4375 0  0.28125 0.4375 0  0.3125 0.4375 0  0.34375 0.4375 0  0.375 0.4375 0  0.40625 0.4375 0  0.4375 0.4375 0  0.46875 0.4375 0  0.5 0.4375 0  0.53125 0.4375 0  0.5625 0.4375 0  0.59375 0.4375 0  0.625 0.4375 0  0.65625 0.4375 0  0.6875 0.4375 0  0.71875 0.4375 0  0.75 0.4375 0  0.78125 0.4375 0  0.8125 0.4375 0  0.84375 0.4375 0  0.875 0.4375 0  0.90625 0.4375 0  0.9375 0.4375 0  0.96875 0.4375 0  1 0.4375 0  0 0.46875 0  0.03125 0.46875 0  0.0625 0.46875 0  0.09375 0.46875 0  0.125 0.46875 0  0.15625 0.46875 0  0.1875 0.46875 0  0.21875 0.46875 0  0.25 0.46875 0  0.28125 0.46875 0  0.3125 0.46875 0  0.34375 0.46875 0  0.375 0.46875 0  0.40625 0.46875 0  0.4375 0.46875 0  0.46875 0.46875 0  0.5 0.46875 0  0.53125 0.46875 0  0.5625 0.46875 0  0.59375 0.46875 0  0.625 0.46875 0  0.65625 0.46875 0  0.6875 0.46875 0  0.71875 0.46875 0  0.75 0.46875 0  0.78125 0.46875 0  0.8125 0.46875 0  0.84375 0.46875 0  0.875 0.46875 0  0.90625 0.46875 0  0.9375 0.46875 0  0.96875 0.46875 0  1 0.46875 0  0 0.5 0  0.03125 0.5 0  0.0625 0.5 0  0.09375 0.5 0  0.125 0.5 0  0.15625 0.5 0  0.1875 0.5 0  0.21875 0.5 0  0.25 0.5 0  0.28125 0.5 0  0.3125 0.5 0  0.34375 0.5 0  0.375 0.5 0  0.40625 0.5 0  0.4375 0.5 0  0.46875 0.5 0  0.5 0.5 0  0.53125 0.5 0  0.5625 0.5 0  0.59375 0.5 0  0.625 0.5 0  0.65625 0.5 0  0.6875 0.5 0  0.71875 0.5 0  0.75 0.5 0  0.78125 0.5 0  0.8125 0.5 0  0.84375 0.5 0  0.875 0.5 0  0.90625 0.5 0  0.9375 0.5 0  0.96875 0.5 0  1 0.5 0  0 0.53125 0  0.03125 0.53125 0  0.0625 0.53125 0  0.09375 0.53125 0  0.125 0.53125 0  0.15625 0.53125 0  0.1875 0.53125 0  0.21875 0.53125 0  0.25 0.53125 0  0.28125 0.53125 0  0.3125 0.53125 0  0.34375 0.53125 0  0.375 0.53125 0  0.40625 0.53125 0  0.4375 0.53125 0  0.46875 0.53125 0  0.5 0.53125 0  0.53125 0.53125 0  0.5625 0.53125 0  0.59375 0.53125 0  0.625 0.53125 0  0.65625 0.53125 0  0.6875 0.53125 0  0.71875 0.53125 0  0.75 0.53125 0  0.78125 0.531
[...]
<PointData  Scalars="phi"> 
<DataArray  type="Float64"  Name="phi"  format="ascii">0.0000000000000000e+00  0.0000000000000000e+00  0.0000000000000000e+00  0.0000000000000000e+00  0.0000000000000000e+00  0.0000000000000000e+00  0.0000000000000000e+00  0.0000000000000000e+00  0.0000000000000000e+00  0.0000000000000000e+00  0.0000000000000000e+00  0.0000000000000000e+00  0.0000000000000000e+00  0.0000000000000000e+00  0.0000000000000000e+00  0.0000000000000000e+00  0.0000000000000000e+00  0.0000000000000000e+00  0.0000000000000000e+00  0.0000000000000000e+00  0.0000000000000000e+00  0.0000000000000000e+00  0.0000000000000000e+00  0.0000000000000000e+00  0.0000000000000000e+00  0.0000000000000000e+00  0.0000000000000000e+00  0.0000000000000000e+00  0.0000000000000000e+00  0.0000000000000000e+00  0.0000000000000000e+00  0.0000000000000000e+00  0.0000000000000000e+00  0.0000000000000000e+00  -7.2465684326746744e-17  6.3690432334566888e-06  2.5095612307290292e-05  6.1544002387694161e-05  1.2019992629587073e-04  2.0444746839985489e-04  3.1638870725730423e-04  4.5671434512191487e-04  6.2463120897888699e-04  8.1785007134326047e-04  1.0326347957232602e-03  1.2639113722837450e-03  1.5054330429401944e-03  1.7499955024014072e-03  1.9896941829882376e-03  2.2162139604185939e-03  2.4211403186515934e-03  2.5962801342798011e-03  2.7339798191495738e-03  2.8274286112148152e-03  2.8709353280085836e-03  2.8601678775763192e-03  2.7923462261904113e-03  2.6663813072958327e-03  2.4829544748949501e-03  2.2445345229066575e-03  1.9553320296832044e-03  1.6211940305543085e-03  1.2494464727796349e-03  8.4869995422198773e-04  4.2865421298211279e-04  0.0000000000000000e+00  0.0000000000000000e+00  -6.3690432337426539e-06  -2.8228414328819793e-16  3.1069667708035750e-05  9.7571399009353435e-05  2.0849220766133903e-04  3.7062767733108792e-04  5.8822115294171170e-04  8.6270491519411944e-04  1.1925547478005844e-03  1.5732646743540990e-03  1.9974438417669918e-03  2.4550326962335554e-03  2.9336308972486213e-03  3.4189250140501618e-03  3.8952001102753884e-03  4.3459159953572399e-03  4.7543263322491810e-03  5.1041170401967696e-03  5.3800395868722553e-03  5.5685148606946077e-03  5.6581843510277027e-03  5.6403873063814083e-03  5.5095453224731300e-03  5.2634393408572972e-03  4.9033682064352603e-03  4.4341826312191291e-03  3.8641935677283228e-03  3.2049596253540041e-03  2.4709644698402934e-03  1.6792025593080819e-03  8.4869995422198990e-04  0.0000000000000000e+00  0.0000000000000000e+00  -2.5095612307710400e-05  -3.1069667708865368e-05  -6.0961868495627085e-16  8.4215960710354537e-05  2.3508985896468818e-04  4.6287272169367191e-04  7.7401487568117629e-04  1.1707782556546510e-03  1.6510177806768034e-03  2.2081417644103062e-03  2.8312542630101805e-03  3.5054751121385338e-03  4.2124264262185934e-03  4.9308677899137961e-03  5.6374565115941584e-03  6.3076043547336952e-03  6.9163983058397526e-03  7.4395503256020831e-03  7.8543397654155436e-03  8.1405122653323714e-03  8.2811004802705937e-03  8.2631348553234910e-03  8.0782167856035710e-03  7.7229317050242956e-03  7.1990857701907385e-03  6.5137566332681331e-03  5.6791561079342651e-03  4.7123100788231276e-03  3.6345684445510318e-03  2.4709644698403029e-03  1.2494464727796427e-03  0.0000000000000000e+00  0.0000000000000000e+00  -6.1544002388238606e-05  -9.7571399010428747e-05  -8.4215960711934816e-05  -1.0239649478192939e-15  1.7314138447625994e-04  4.4897179864111656e-04  8.3623697147850134e-04  1.3381497112035226e-03  1.9520981681150091e-03  2.6695904467190154e-03  3.4764393667557729e-03  4.3531817783255388e-03  5.2757176529177000e-03  6.2161455520964928e-03  7.1437633495272206e-03  8.0261965468198977e-03  8.8306114311260224e-03  9.5249668695630303e-03  1.0079256856986990e-02  1.0466696096475115e-02  1.0664802893172952e-02  1.0656337409185597e-02  1.0430058720380820e-02  9.9812709341779247e-03  9.3121366145957445e-03  8.4317446119912074e-03  7.3559287554379772e-03  6.1068433111934658e-03  4.7123100788231537e-03  3.2049596253540340e-03  1.6211940305543271e-03  0.0000000000000000e+00  0.0000000000000000e+00  -1.2019992629652705e-04  -2.0849220766263541e-04  -2.3508985896659312e-04  -1.7314138447872791e-04  -1.4865685178961426e-15  3.0167522057631671e-04  7.4303069530581053e-04  1.3283784881020794e-03  2.0548319822929588e-03  2.9122331002589164e-03  3.8833757510992311e-03  4.9445186401775535e-03  6.0661692739059862e-03  7.2141103779948031e-03  8.3506304275493947e-03  9.4359119302512909e-03  1.0429524820673438e-02  1.1291968057882356e-02  1.1986200435988834e-02  1.2479101800751251e-02  1.2742808310416206e-02  1.2755869994579618e-02  1.2504185476078072e-02  1.1981677074763081e-02  1.1190679284565526e-02  1.0142024418656531e-02  8.8548206033023623e-03  7.3559287554380310e-03  5.6791561079343380e-03  3.8641935677283874e-03  1.9553320296832417e-03  0.0000000000000000e+00  0.0000000000000000e+00  -2.0444746840060841e-04  -3.7062767733257610e-04  -4.6287272169585848e-04  -4.4897179864394844e-04  -3.0167522057972631e-04  -1.9536319621028789e-15  4.6971544166825156e-04  1.1130502375335735e-03  1.9270652031439415e-03  2.9002110410596502e-03  4.0125861816924834e-03  5.2365362216114063e-03  6.5375736069869326e-03  7.8755836980290480e-03  9.2062721243947581e-03  1.0482798835634615e-02  1.1657536832447715e-02  1.2683888521181276e-02  1.3518090161779302e-02  1.4120935075612434e-02  1.4459349139005815e-02  1.4507757502748433e-02  1.4249189240079941e-02  1.3676076435761778e-02  1.2790715703781021e-02  1.1605372805608796e-02  1.0142024418656628e-02  8.4317446119913479e-03  6.5137566332682788e-03  4.4341826312192453e-03  2.2445345229067208e-03  0.0000000000000000e+00  0.0000000000000000e+00  -3.1638870725813836e-04  -5.8822115294335903e-04  -7.7401487568359568e-04  -8.3623697148163360e-04  -7.4303069530957900e-04  -4.6971544167256674e-04  -2.3801574135271060e-15  6.7313989305319683e-04  1.5469557513729201e-03  2.6088139647480633e-03  3.8364832840377221e-03  5.1988130713319976e-03  6.6567780155903783e-03  8.1648507209068841e-03  9.6726507457719803e-03  1.1126807803517077e-02  1.2472968346870242e-02  1.3657868981864912e-02  1.4631397312632620e-02  1.5348561020389237e-02  1.5771289221375454e-02  1.5869996306399736e-02  1.5624847302489914e-02  1.5026674973504186e-02  1.4077511956726064e-02  1.2790715703781166e-02  1.1190679284565758e-02  9.3121366145960047e-03  7.1990857701909796e-03  4.9033682064354434e-03  2.4829544748950472e-03  0.0000000000000000e+00  0.0000000000000000e+00  -4.5671434512281167e-04  -8.6270491519589015e-04  -1.1707782556572509e-03  -1.3381497112068862e-03  -1.3283784881061239e-03  -1.1130502375381992e-03  -6.7313989305829334e-04  -2.7238314160674685e-15  9.0406578585463160e-04  2.0256683231930808e-03  3.3406450255460481e-03  4.8148082956876344e-03  6.4051033764450163e-03  8.0611326975239799e-03  9.7269894844186910e-03  1.1343331264357898e-02  1.2849614424396975e-02  1.4186404514994026e-02  1.5297673799370540e-02  1.6132997749516872e-02  1.6649565778009141e-02  1.6813928334294560e-02  1.6603412322420949e-02  1.6007149235846251e-02  1.5026674973504399e-02  1.3676076435762127e-02  1.1981677074763497e-02  9.9812709341783427e-03  7.7229317050246599e-03  5.2634393408575644e-03  2.6663813072959740e-03  0.0000000000000000e+00  0.0000000000000000e+00  -6.2463120897982775e-04  -1.1925547478024417e-03  -1.6510177806795296e-03  -1.9520981681185338e-03  -2.0548319822971924e-03  -1.9270652031487775e-03  -1.5469557513782398e-03  -9.0406578586030620e-04  -2.9483908445395328e-15  1.1514368086932110e-03  2.5245710238149862e-03  4.0826695388083353e-03  5.7791977686118962e-03  7.5594795391946091e-03  9.3626963843719720e-03  1.1124150496818343e-02  1.2777705193839953e-02  1.4258309669698800e-02  1.5504511289724724e-02  1.6460858874360669e-02  1.7080104318145946e-02  1.7325117341303028e-02  1.7170438894830893e-02  1.6603412322421233e-02  1.5624847302490398e-02  1.4249189240080545e-02  1.2504185476078712e-02  1.0430058720381429e-02  8.0782167856040844e-03  5.5095453224735004e-03  2.7923462261906047e-03  0.0000000000000000e+00  0.0000000000000000e+00  -8.1785007134422671e-04  -1.5732646743560059e-03  -2.2081417644131025e-03  -2.6695904467226288e-03  -2.9122331002632519e-03  -2.9002110410645951e-03  -2.6088139647534921e-03  -2.0256683231988570e-03  -1.1514368086991968e-03  -3.0274112253662498e-15  1.4018887569980662e-03  3.0154637747886737e-03  4.7912913278650889e-03  6.6710476240774601e-03  8.5896633615059823e-03  1.0477753477948677e-02  1.2264239502378243e-02  1.3879064265397936e-02  1.5255894914892813e-02  1.6334710362188108e-02  1.7064173448177671e-02  1.7403696109960006e-02  1.7325117341303389e-02  1.6813928334295195e-02  1.5869996306400555e-02  1.4507757502749337e-02  1.2755869994580525e-02  1.0656337409186426e-02  8.2631348553241779e-03  5.6403873063818957e-03  2.8601678775765724e-03  0.0000000000000000e+00  0.0000000000000000e+00  -1.0326347957242336e-03  -1.9974438417689117e-03  -2.8312542630129947e-03  -3.4764393667594045e-03  -3.8833757511035827e-03  -4.0125861816974369e-03  -3.8364832840431483e-03  -3.3406450255518052e-03  -2.5245710238209311e-03  -1.4018887570040541e-03  -2.9453810018199821e-15  1.6408205499351327e-03  3.4688412950814105e-03  5.4227512999813626e-03  7.4339283689839998e-03  9.4290114068816024e-03  1.1332678925358969e-02  1.3070527411391222e-02  1.4571939201048167e-02  1.5772829661708211e-02  1.6618167873280319e-02  1.7064173448178111e-02  1.7080104318146737e-02  1.6649565778010182e-02  1.5771289221376647e-02  1.4459349139007063e-02  1.2742808310417412e-02  1.0664802893174031e-02  8.2811004802714715e-03  5.6581843510283229e-03  2.8709353280089028e-03  0.0000000000000000e+00  0.0000000000000000e+00  -1.2639113722847078e-03  -2.4550326962354536e-03  -3.5054751121413137e-03  -4.3531817783291219e-03  -4.9445186401818383e-03  -5.2365362216162739e-03  -5.1988130713373146e-03  -4.8148082956932566e-03  -4.0826695388141163e-03  -3.0154637747944668e-03  -1.6408205499407952e-03  -2.7001135039031526e-15  1.8535798040989174e-03  3.8563007129164776e-03  5.9367132901612281e-03  8.0182263145491036e-03  1.0022014264261206e-02  1.1870031490318882e-02  1.3488017486067198e-02  1.4808377794673097e-02  1.5772829661708725e-02  1.6334710362189052e-02  1.6460858874361949e-02  1.6132997749518371e-02  1.5348561020390852e-02  1.4120935075614061e-02  1.2479101800752785e-02  1.0466696096476467e-02  8.1405122653334591e-03  5.5685148606953684e-03  2.8274286112152068e-03  0.0000000000000000e+00  0.0000000000000000e+00  -1.5054330429411303e-03  -2.9336308972504666e-03  -4.2124264262212927e-03  -5.2757176529211729e-03  -6.0661692739101304e-03  -6.5375736069916285e-03  -6.6567780155954905e-03  -6.4051033764504009e-03  -5.7791977686174039e-03  -4.7912913278705714e-03  -3.4688412950867270e-03  -1.8535798041039362e-03  -2.3012381586801744e-15  2.0266622325161888e-03  4.1528741524974218e-03  6.2995863209536936e-03  8.3852407147098386e-03  1.0328891570262141e-02  1.2053319244698962e-02  1.3488017486067776e-02  1.4571939201049249e-02  1.5255894914894309e-02  1.5504511289726526e-02  1.5297673799372529e-02  1.4631397312634686e-02  1.3518090161781330e-02  1.1986200435990715e-02  1.0079256856988624e-02  7.8543397654168481e-03  5.3800395868731643e-03  2.7339798191500396e-03  0.0000000000000000e+00  0.0000000000000000e+00  -1.7499955024023019e-03  -3.4189250140519234e-03  -4.9308677899163678e-03  -6.2161455520997992e-03  -7.2141103779987410e-03  -7.8755836980334958e-03  -8.1648507209117083e-03  -8.0611326975290349e-03  -7.5594795391997465e-03  -6.6710476240825350e-03  -5.4227512999862329e-03  -3.8563007129210148e-03  -2.0266622325202763e-03  -1.7718275323406457e-15  2.1488228628698241e-03  4.3390878428441757e-03  6.4873005421393496e-03  8.5103880599410216e-03  1.0328891570262778e-02  1.1870031490320086e-02  1.3070527411392911e-02  1.3879064265400014e-02  1.4258309669701152e-02  1.4186404514996531e-02  1.3657868981867449e-02  1.2683888521183720e-02  1.1291968057884592e-02  9.5249668695649575e-03  7.4395503256036114e-03  5.1041170401978295e-03  2.5962801342803436e-03  0.0000000000000000e+00  0.0000000000000000e+00  -1.9896941829890789e-03  -3.8952001102770424e-03  -5.6374565115965714e-03  -7.1437633495303153e-03  -8.3506304275530741e-03  -9.2062721243988954e-03  -9.6726507457764437e-03  -9.7269894844233418e-03  -9.3626963843766627e-03  -8.5896633615105689e-03  -7.4339283689883462e-03  -5.9367132901652049e-03  -4.1528741525009190e-03  -2.1488228628727523e-03  -1.1464961766881496e-15  2.2120045166485140e-03  4.4025724932954318e-03  6.4873005421400192e-03  8.3852407147111362e-03  1.0022014264263055e-02  1.1332678925361281e-02  1.2264239502380914e-02  1.2777705193842866e-02  1.2849614424399997e-02  1.2472968346873246e-02  1.1657536832450573e-02  1.0429524820676026e-02  8.8306114311282359e-03  6.9163983058415021e-03  4.7543263322503901e-03  2.4211403186522105e-03  0.0000000000000000e+00  0.0000000000000000e+00  -2.2162139604193715e-03  -4.3459159953587682e-03  -6.3076043547359217e-03  -8.0261965468227461e-03  -9.4359119302546597e-03  -1.0482798835638390e-02  -1.1126807803521127e-02  -1.1343331264362088e-02  -1.1124150496822525e-02  -1.0477753477952715e-02  -9.4290114068853632e-03  -8.0182263145524638e-03  -6.2995863209565463e-03  -4.3390878428464404e-03  -2.2120045166501298e-03  -4.6553153076179392e-16  2.2120045166492035e-03  4.3390878428455279e-03  6.2995863209556564e-03  8.0182263145515999e-03  9.4290114068845358e-03  1.0477753477951936e-02  1.1124150496821802e-02  1.1343331264361427e-02  1.1126807803520536e-02  1.0482798835637873e-02  9.4359119302542191e-03  8.0261965468223888e-03  6.3076043547356520e-03  4.3459159953585886e-03  2.2162139604192813e-03  0.0000000000000000e+00  0.0000000000000000e+00  -2.4211403186523007e-03  -4.7543263322505696e-03  -6.9163983058417710e-03  -8.8306114311285933e-03  -1.0429524820676470e-02  -1.1657536832451094e-02  -1.2472968346873841e-02  -1.2849614424400661e-02  -1.2777705193843593e-02  -1.2264239502381695e-02  -1.1332678925362109e-02  -1.0022014264263917e-02  -8.3852407147120243e-03  -6.4873005421409308e-03  -4.4025724932963556e-03  -2.2120045166494412e-03  2.2389188387863031e-16  2.1488228628718442e-03  4.1528741525000317e-03  5.9367132901643454e-03  7.4339283689875239e-03  8.5896633615097969e-03  9.3626963843759479e-03  9.7269894844226878e-03  9.6726507457758609e-03  9.2062721243983854e-03  8.3506304275526369e-03  7.1437633495299632e-03  5.6374565115963060e-03  3.8952001102768646e-03  1.9896941829889896e-03  0.0000000000000000e+00  0.0000000000000000e+00  -2.5962801342804325e-03  -5.1041170401980081e-03  -7.4395503256038794e-03  -9.5249668695653114e-03  -1.1291968057885033e-02  -1.2683888521184239e-02  -1.3657868981868042e-02  -1.4186404514997194e-02  -1.4258309669701876e-02  -1.3879064265400788e-02  -1.3070527411393730e-02  -1.1870031490320940e-02  -1.0328891570263656e-02  -8.5103880599419236e-03  -6.4873005421402629e-03  -4.3390878428450925e-03  -2.1488228628707340e-03  8.7707204316667759e-16  2.0266622325194033e-03  3.8563007129201704e-03  5.4227512999854288e-03  6.6710476240817787e-03  7.5594795391990457e-03  8.0611326975283948e-03  8.1648507209111341e-03  7.8755836980329945e-03  7.2141103779983159e-03  6.2161455520994557e-03  4.9308677899161076e-03  3.4189250140517491e-03  1.7499955024022145e-03  0.0000000000000000e+00  0.0000000000000000e+00  -2.7339798191501272e-03  -5.3800395868733395e-03  -7.8543397654171100e-03  -1.0079256856988971e-02  -1.1986200435991148e-02  -1.3518090161781838e-02  -1.4631397312635271e-02  -1.5297673799373180e-02  -1.5504511289727237e-02  -1.5255894914895068e-02  -1.4571939201050056e-02  -1.3488017486068616e-02  -1.2053319244699831e-02  -1.0328891570263028e-02  -8.3852407147107372e-03  -6.2995863209545904e-03  -4.1528741524983100e-03  -2.0266622325170614e-03  1.4510024054922714e-15  1.8535798041031154e-03  3.4688412950859464e-03  4.7912913278698385e-03  5.7791977686167256e-03  6.4051033764497807e-03  6.6567780155949345e-03  6.5375736069911410e-03  6.0661692739097184e-03  5.2757176529208381e-03  4.2124264262210385e-03  2.9336308972502962e-03  1.5054330429410451e-03  0.0000000000000000e+00  0.0000000000000000e+00  -2.8274286112152918e-03  -5.5685148606955392e-03  -8.1405122653337124e-03  -1.0466696096476802e-02  -1.2479101800753203e-02  -1.4120935075614554e-02  -1.5348561020391414e-02  -1.6132997749518999e-02  -1.6460858874362633e-02  -1.6334710362189787e-02  -1.5772829661709502e-02  -1.4808377794673911e-02  -1.3488017486068041e-02  -1.1870031490319743e-02  -1.0022014264262072e-02  -8.0182263145499692e-03  -5.9367132901620833e-03  -3.8563007129173181e-03  -1.8535798040997360e-03  1.9108573714129344e-15  1.6408205499400439e-03  3.0154637747937616e-03  4.0826695388134623e-03  4.8148082956926599e-03  5.1988130713367803e-03  5.2365362216158055e-03  4.9445186401814410e-03  4.3531817783288001e-03  3.5054751121410704e-03  2.4550326962352910e-03  1.2639113722846258e-03  0.0000000000000000e+00  0.0000000000000000e+00  -2.8709353280089852e-03  -5.6581843510284868e-03  -8.2811004802717178e-03  -1.0664802893174353e-02  -1.2742808310417807e-02  -1.4459349139007533e-02  -1.5771289221377185e-02  -1.6649565778010779e-02  -1.7080104318147389e-02  -1.7064173448178812e-02  -1.6618167873281065e-02  -1.5772829661708995e-02  -1.4571939201048979e-02  -1.3070527411392044e-02  -1.1332678925359795e-02  -9.4290114068824281e-03  -7.4339283689848160e-03  -5.4227512999821623e-03  -3.4688412950821903e-03  -1.6408205499358840e-03  2.2303601833717794e-15  1.4018887570033825e-03  2.5245710238203083e-03  3.3406450255512379e-03  3.8364832840426391e-03  4.0125861816969919e-03  3.8833757511032045e-03  3.4764393667590984e-03  2.8312542630127635e-03  1.9974438417687565e-03  1.0326347957241556e-03  0.0000000000000000e+00  0.0000000000000000e+00  -2.8601678775766496e-03  -5.6403873063820510e-03  -8.2631348553244104e-03  -1.0656337409186733e-02  -1.2755869994580902e-02  -1.4507757502749781e-02  -1.5869996306401062e-02  -1.6813928334295757e-02  -1.7325117341304007e-02  -1.7403696109960672e-02  -1.7064173448178378e-02  -1.6334710362188851e-02  -1.5255894914893580e-02  -1.3879064265398713e-02  -1.2264239502379025e-02  -1.0477753477949457e-02  -8.5896633615067507e-03  -6.6710476240782138e-03  -4.7912913278658226e-03  -3.0154637747893810e-03  -1.4018887569987391e-03  2.3956711521323702e-15  1.1514368086986116e-03  2.0256683231983236e-03  2.6088139647530138e-03  2.9002110410641766e-03  2.9122331002628971e-03  2.6695904467223413e-03  2.2081417644128848e-03  1.5732646743558602e-03  8.1785007134415363e-04  0.0000000000000000e+00  0.0000000000000000e+00  -2.7923462261906767e-03  -5.5095453224736444e-03  -8.0782167856042995e-03  -1.0430058720381715e-02  -1.2504185476079066e-02  -1.4249189240080961e-02  -1.5624847302490873e-02  -1.6603412322421761e-02  -1.7170438894831469e-02  -1.7325117341303653e-02  -1.7080104318146608e-02  -1.6460858874361363e-02  -1.5504511289725437e-02  -1.4258309669699522e-02  -1.2777705193840683e-02  -1.1124150496819068e-02  -9.3626963843726867e-03  -7.5594795391953091e-03  -5.7791977686125796e-03  -4.0826695388089919e-03  -2.5245710238156103e-03  -1.1514368086937971e-03  2.4054070778504648e-15  9.0406578585981072e-04  1.5469557513777962e-03  1.9270652031483895e-03  2.0548319822968637e-03  1.9520981681182671e-03  1.6510177806793270e-03  1.1925547478023064e-03  6.2463120897976020e-04  0.0000000000000000e+00  0.0000000000000000e+00  -2.6663813072960400e-03  -5.2634393408576962e-03  -7.7229317050248568e-03  -9.9812709341786029e-03  -1.1981677074763820e-02  -1.3676076435762508e-02  -1.5026674973504833e-02  -1.6007149235846736e-02  -1.6603412322421483e-02  -1.6813928334295132e-02  -1.6649565778009748e-02  -1.6132997749517507e-02  -1.5297673799371199e-02  -1.4186404514994689e-02  -1.2849614424397641e-02  -1.1343331264358561e-02  -9.7269894844193433e-03  -8.0611326975246200e-03  -6.4051033764456391e-03  -4.8148082956882329e-03  -3.3406450255466171e-03  -2.0256683231936155e-03  -9.0406578585512686e-04  2.2716944499134052e-15  6.731398930578883