<?xml version="1.0"?>
<VTKFile type="UnstructuredGrid"  version="0.1"  >
<UnstructuredGrid>
<Piece  NumberOfPoints="1089" NumberOfCells="2048">
<Points>
<DataArray  type="Float64"  NumberOfComponents="3"  format="ascii">0 0 0  0.03125 0 0  0.0625 0 0  0.09375 0 0  0.125 0 0  0.15625 0 0  0.1875 0 0  0.21875 0 0  0.25 0 0  0.28125 0 0  0.3125 0 0  0.34375 0 0  0.375 0 0  0.40625 0 0  0.4375 0 0  0.46875 0 0  0.5 0 0  0.53125 0 0  0.5625 0 0  0.59375 0 0  0.625 0 0  0.65625 0 0  0.6875 0 0  0.71875 0 0  0.75 0 0  0.78125 0 0  0.8125 0 0  0.84375 0 0  0.875 0 0  0.90625 0 0  0.9375 0 0  0.96875 0 0  1 0 0  0 0.03125 0  0.03125 0.03125 0  0.0625 0.03125 0  0.09375 0.03125 0  0.125 0.03125 0  0.15625 0.03125 0  0.1875 0.03125 0  0.21875 0.03125 0  0.25 0.03125 0  0.28125 0.03125 0  0.3125 0.03125 0  0.34375 0.03125 0  0.375 0.03125 0  0.40625 0.03125 0  0.4375 0.03125 0  0.46875 0.03125 0  0.5 0.03125 0  0.53125 0.03125 0  0.5625 0.03125 0  0.59375 0.03125 0  0.625 0.03125 0  0.65625 0.03125 0  0.6875 0.03125 0  0.71875 0.03125 0  0.75 0.03125 0  0.78125 0.03125 0  0.8125 0.03125 0  0.84375 0.03125 0  0.875 0.03125 0  0.90625 0.03125 0  0.9375 0.03125 0  0.96875 0.03125 0  1 0.03125 0  0 0.0625 0  0.03125 0.0625 0  0.0625 0.0625 0  0.09375 0.0625 0  0.125 0.0625 0  0.15625 0.0625 0  0.1875 0.0625 0  0.21875 0.0625 0  0.25 0.0625 0  0.28125 0.0625 0  0.3125 0.0625 0  0.34375 0.0625 0  0.375 0.0625 0  0.40625 0.0625 0  0.4375 0.0625 0  0.46875 0.0625 0  0.5 0.0625 0  0.53125 0.0625 0  0.5625 0.0625 0  0.59375 0.0625 0  0.625 0.0625 0  0.65625 0.0625 0  0.6875 0.0625 0  0.71875 0.0625 0  0.75 0.0625 0  0.78125 0.0625 0  0.8125 0.0625 0  0.84375 0.0625 0  0.875 0.0625 0  0.90625 0.0625 0  0.9375 0.0625 0  0.96875 0.0625 0  1 0.0625 0  0 0.09375 0  0.03125 0.09375 0  0.0625 0.09375 0  0.09375 0.09375 0  0.125 0.09375 0  0.15625 0.09375 0  0.1875 0.09375 0  0.21875 0.09375 0  0.25 0.09375 0  0.28125 0.09375 0  0.3125 0.09375 0  0.34375 0.09375 0  0.375 0.09375 0  0.40625 0.09375 0  0.4375 0.09375 0  0.46875 0.09375 0  0.5 0.09375 0  0.53125 0.09375 0  0.5625 0.09375 0  0.59375 0.09375 0  0.625 0.09375 0  0.65625 0.09375 0  0.6875 0.09375 0  0.71875 0.09375 0  0.75 0.09375 0  0.78125 0.09375 0  0.8125 0.09375 0  0.84375 0.09375 0  0.875 0.09375 0  0.90625 0.09375 0  0.9375 0.09375 0  0.96875 0.09375 0  1 0.09375 0  0 0.125 0  0.03125 0.125 0  0.0625 0.125 0  0.09375 0.125 0  0.125 0.125 0  0.15625 0.125 0  0.1875 0.125 0  0.21875 0.125 0  0.25 0.125 0  0.28125 0.125 0  0.3125 0.125 0  0.34375 0.125 0  0.375 0.125 0  0.40625 0.125 0  0.4375 0.125 0  0.46875 0.125 0  0.5 0.125 0  0.53125 0.125 0  0.5625 0.125 0  0.59375 0.125 0  0.625 0.125 0  0.65625 0.125 0  0.6875 0.125 0  0.71875 0.125 0  0.75 0.125 0  0.78125 0.125 0  0.8125 0.125 0  0.84375 0.125 0  0.875 0.125 0  0.90625 0.125 0  0.9375 0.125 0  0.96875 0.125 0  1 0.125 0  0 0.15625 0  0.03125 0.15625 0  0.0625 0.15625 0  0.09375 0.15625 0  0.125 0.15625 0  0.15625 0.15625 0  0.1875 0.15625 0  0.21875 0.15625 0  0.25 0.15625 0  0.28125 0.15625 0  0.3125 0.15625 0  0.34375 0.15625 0  0.375 0.15625 0  0.40625 0.15625 0  0.4375 0.15625 0  0.46875 0.15625 0  0.5 0.15625 0  0.53125 0.15625 0  0.5625 0.15625 0  0.59375 0.15625 0  0.625 0.15625 0  0.65625 0.15625 0  0.6875 0.15625 0  0.71875 0.15625 0  0.75 0.15625 0  0.78125 0.15625 0  0.8125 0.15625 0  0.84375 0.15625 0  0.875 0.15625 0  0.90625 0.15625 0  0.9375 0.15625 0  0.96875 0.15625 0  1 0.15625 0  0 0.1875 0  0.03125 0.1875 0  0.0625 0.1875 0  0.09375 0.1875 0  0.125 0.1875 0  0.15625 0.1875 0  0.1875 0.1875 0  0.21875 0.1875 0  0.25 0.1875 0  0.28125 0.1875 0  0.3125 0.1875 0  0.34375 0.1875 0  0.375 0.1875 0  0.40625 0.1875 0  0.4375 0.1875 0  0.46875 0.1875 0  0.5 0.1875 0  0.53125 0.1875 0  0.5625 0.1875 0  0.59375 0.1875 0  0.625 0.1875 0  0.65625 0.1875 0  0.6875 0.1875 0  0.71875 0.1875 0  0.75 0.1875 0  0.78125 0.1875 0  0.8125 0.1875 0  0.84375 0.1875 0  0.875 0.1875 0  0.90625 0.1875 0  0.9375 0.1875 0  0.96875 0.1875 0  1 0.1875 0  0 0.21875 0  0.03125 0.21875 0  0.0625 0.21875 0  0.09375 0.21875 0  0.125 0.21875 0  0.15625 0.21875 0  0.1875 0.21875 0  0.21875 0.21875 0  0.25 0.21875 0  0.28125 0.21875 0  0.3125 0.21875 0  0.34375 0.21875 0  0.375 0.21875 0  0.40625 0.21875 0  0.4375 0.21875 0  0.46875 0.21875 0  0.5 0.21875 0  0.53125 0.21875 0  0.5625 0.21875 0  0.59375 0.21875 0  0.625 0.21875 0  0.65625 0.21875 0  0.6875 0.21875 0  0.71875 0.21875 0  0.75 0.21875 0  0.78125 0.21875 0  0.8125 0.21875 0  0.84375 0.21875 0  0.875 0.21875 0  0.90625 0.21875 0  0.9375 0.21875 0  0.96875 0.21875 0  1 0.21875 0  0 0.25 0  0.03125 0.25 0  0.0625 0.25 0  0.09375 0.25 0  0.125 0.25 0  0.15625 0.25 0  0.1875 0.25 0  0.21875 0.25 0  0.25 0.25 0  0.28125 0.25 0  0.3125 0.25 0  0.34375 0.25 0  0.375 0.25 0  0.40625 0.25 0  0.4375 0.25 0  0.46875 0.25 0  0.5 0.25 0  0.53125 0.25 0  0.5625 0.25 0  0.59375 0.25 0  0.625 0.25 0  0.65625 0.25 0  0.6875 0.25 0  0.71875 0.25 0  0.75 0.25 0  0.78125 0.25 0  0.8125 0.25 0  0.84375 0.25 0  0.875 0.25 0  0.90625 0.25 0  0.9375 0.25 0  0.96875 0.25 0  1 0.25 0  0 0.28125 0  0.03125 0.28125 0  0.0625 0.28125 0  0.09375 0.28125 0  0.125 0.28125 0  0.15625 0.28125 0  0.1875 0.28125 0  0.21875 0.28125 0  0.25 0.28125 0  0.28125 0.28125 0  0.3125 0.28125 0  0.34375 0.28125 0  0.375 0.28125 0  0.40625 0.28125 0  0.4375 0.28125 0  0.46875 0.28125 0  0.5 0.28125 0  0.53125 0.28125 0  0.5625 0.28125 0  0.59375 0.28125 0  0.625 0.28125 0  0.65625 0.28125 0  0.6875 0.28125 0  0.71875 0.28125 0  0.75 0.28125 0  0.78125 0.28125 0  0.8125 0.28125 0  0.84375 0.28125 0  0.875 0.28125 0  0.90625 0.28125 0  0.9375 0.28125 0  0.96875 0.28125 0  1 0.28125 0  0 0.3125 0  0.03125 0.3125 0  0.0625 0.3125 0  0.09375 0.3125 0  0.125 0.3125 0  0.15625 0.3125 0  0.1875 0.3125 0  0.21875 0.3125 0  0.25 0.3125 0  0.28125 0.3125 0  0.3125 0.3125 0  0.34375 0.3125 0  0.375 0.3125 0  0.40625 0.3125 0  0.4375 0.3125 0  0.46875 0.3125 0  0.5 0.3125 0  0.53125 0.3125 0  0.5625 0.3125 0  0.59375 0.3125 0  0.625 0.3125 0  0.65625 0.3125 0  0.6875 0.3125 0  0.71875 0.3125 0  0.75 0.3125 0  0.78125 0.3125 0  0.8125 0.3125 0  0.84375 0.3125 0  0.875 0.3125 0  0.90625 0.3125 0  0.9375 0.3125 0  0.96875 0.3125 0  1 0.3125 0  0 0.34375 0  0.03125 0.34375 0  0.0625 0.34375 0  0.09375 0.34375 0  0.125 0.34375 0  0.15625 0.34375 0  0.1875 0.34375 0  0.21875 0.34375 0  0.25 0.34375 0  0.28125 0.34375 0  0.3125 0.34375 0  0.34375 0.34375 0  0.375 0.34375 0  0.40625 0.34375 0  0.4375 0.34375 0  0.46875 0.34375 0  0.5 0.34375 0  0.53125 0.34375 0  0.5625 0.34375 0  0.59375 0.34375 0  0.625 0.34375 0  0.65625 0.34375 0  0.6875 0.34375 0  0.71875 0.34375 0  0.75 0.34375 0  0.78125 0.34375 0  0.8125 0.34375 0  0.84375 0.34375 0  0.875 0.34375 0  0.90625 0.34375 0  0.9375 0.34375 0  0.96875 0.34375 0  1 0.34375 0  0 0.375 0  0.03125 0.375 0  0.0625 0.375 0  0.09375 0.375 0  0.125 0.375 0  0.15625 0.375 0  0.1875 0.375 0  0.21875 0.375 0  0.25 0.375 0  0.28125 0.375 0  0.3125 0.375 0  0.34375 0.375 0  0.375 0.375 0  0.40625 0.375 0  0.4375 0.375 0  0.46875 0.375 0  0.5 0.375 0  0.53125 0.375 0  0.5625 0.375 0  0.59375 0.375 0  0.625 0.375 0  0.65625 0.375 0  0.6875 0.375 0  0.71875 0.375 0  0.75 0.375 0  0.78125 0.375 0  0.8125 0.375 0  0.84375 0.375 0  0.875 0.375 0  0.90625 0.375 0  0.9375 0.375 0  0.96875 0.375 0  1 0.375 0  0 0.40625 0  0.03125 0.40625 0  0.0625 0.40625 0  0.09375 0.40625 0  0.125 0.40625 0  0.15625 0.40625 0  0.1875 0.40625 0  0.21875 0.40625 0  0.25 0.40625 0  0.28125 0.40625 0  0.3125 0.40625 0  0.34375 0.40625 0  0.375 0.40625 0  0.40625 0.40625 0  0.4375 0.40625 0  0.46875 0.40625 0  0.5 0.40625 0  0.53125 0.40625 0  0.5625 0.40625 0  0.59375 0.40625 0  0.625 0.40625 0  0.65625 0.40625 0  0.6875 0.40625 0  0.71875 0.40625 0  0.75 0.40625 0  0.78125 0.40625 0  0.8125 0.40625 0  0.84375 0.40625 0  0.875 0.40625 0  0.90625 0.40625 0  0.9375 0.40625 0  0.96875 0.40625 0  1 0.40625 0  0 0.4375 0  0.03125 0.4375 0  0.0625 0.4375 0  0.09375 0.4375 0  0.125 0.4375 0  0.15625 0.4375 0  0.1875 0.4375 0  0.21875 0.4375 0  0.25 0.4375 0  0.28125 0.4375 0  0.3125 0.4375 0  0.34375 0.4375 0  0.375 0.4375 0  0.40625 0.4375 0  0.4375 0.4375 0  0.46875 0.4375 0  0.5 0.4375 0  0.53125 0.4375 0  0.5625 0.4375 0  0.59375 0.4375 0  0.625 0.4375 0  0.65625 0.4375 0  0.6875 0.4375 0  0.71875 0.4375 0  0.75 0.4375 0  0.78125 0.4375 0  0.8125 0.4375 0  0.84375 0.4375 0  0.875 0.4375 0  0.90625 0.4375 0  0.9375 0.4375 0  0.96875 0.4375 0  1 0.4375 0  0 0.46875 0  0.03125 0.46875 0  0.0625 0.46875 0  0.09375 0.46875 0  0.125 0.46875 0  0.15625 0.46875 0  0.1875 0.46875 0  0.21875 0.46875 0  0.25 0.46875 0  0.28125 0.46875 0  0.3125 0.46875 0  0.34375 0.46875 0  0.375 0.46875 0  0.40625 0.46875 0  0.4375 0.46875 0  0.46875 0.46875 0  0.5 0.46875 0  0.53125 0.46875 0  0.5625 0.46875 0  0.59375 0.46875 0  0.625 0.46875 0  0.65625 0.46875 0  0.6875 0.46875 0  0.71875 0.46875 0  0.75 0.46875 0  0.78125 0.46875 0  0.8125 0.46875 0  0.84375 0.46875 0  0.875 0.46875 0  0.90625 0.46875 0  0.9375 0.46875 0  0.96875 0.46875 0  1 0.46875 0  0 0.5 0  0.03125 0.5 0  0.0625 0.5 0  0.09375 0.5 0  0.125 0.5 0  0.15625 0.5 0  0.1875 0.5 0  0.21875 0.5 0  0.25 0.5 0  0.28125 0.5 0  0.3125 0.5 0  0.34375 0.5 0  0.375 0.5 0  0.40625 0.5 0  0.4375 0.5 0  0.46875 0.5 0  0.5 0.5 0  0.53125 0.5 0  0.5625 0.5 0  0.59375 0.5 0  0.625 0.5 0  0.65625 0.5 0  0.6875 0.5 0  0.71875 0.5 0  0.75 0.5 0  0.78125 0.5 0  0.8125 0.5 0  0.84375 0.5 0  0.875 0.5 0  0.90625 0.5 0  0.9375 0.5 0  0.96875 0.5 0  1 0.5 0  0 0.53125 0  0.03125 0.53125 0  0.0625 0.53125 0  0.09375 0.53125 0  0.125 0.53125 0  0.15625 0.53125 0  0.1875 0.53125 0  0.21875 0.53125 0  0.25 0.53125 0  0.28125 0.53125 0  0.3125 0.53125 0  0.34375 0.53125 0  0.375 0.53125 0  0.40625 0.53125 0  0.4375 0.53125 0  0.46875 0.53125 0  0.5 0.53125 0  0.53125 0.53125 0  0.5625 0.53125 0  0.59375 0.53125 0  0.625 0.53125 0  0.65625 0.53125 0  0.6875 0.53125 0  0.71875 0.53125 0  0.75 0.53125 0  0.78125 0.531
[...]
<PointData  Scalars="phi"> 
<DataArray  type="Float64"  Name="phi"  format="ascii">0.0000000000000000e+00  0.0000000000000000e+00  0.0000000000000000e+00  0.0000000000000000e+00  0.0000000000000000e+00  0.0000000000000000e+00  0.0000000000000000e+00  0.0000000000000000e+00  0.0000000000000000e+00  0.0000000000000000e+00  0.0000000000000000e+00  0.0000000000000000e+00  0.0000000000000000e+00  0.0000000000000000e+00  0.0000000000000000e+00  0.0000000000000000e+00  0.0000000000000000e+00  0.0000000000000000e+00  0.0000000000000000e+00  0.0000000000000000e+00  0.0000000000000000e+00  0.0000000000000000e+00  0.0000000000000000e+00  0.0000000000000000e+00  0.0000000000000000e+00  0.0000000000000000e+00  0.0000000000000000e+00  0.0000000000000000e+00  0.0000000000000000e+00  0.0000000000000000e+00  0.0000000000000000e+00  0.0000000000000000e+00  0.0000000000000000e+00  0.0000000000000000e+00  -2.5876764196279603e-15  2.3846427106177093e-04  9.3960724241446249e-04  2.3042727539333493e-03  4.5004094602629297e-03  7.6547198948036035e-03  1.1845907058409141e-02  1.7099830733670128e-02  2.3386793109301762e-02  3.0621082822247341e-02  3.8662815042960895e-02  4.7322013896495756e-02  5.6364794915148425e-02  6.5521422372408850e-02  7.4495942264084652e-02  8.2977029152481563e-02  9.0649636450375798e-02  9.7207006863496509e-02  1.0236258391762190e-01  1.0586136741837611e-01  1.0749027532539931e-01  1.0708711123228187e-01  1.0454778922909322e-01  9.9831534762135188e-02  9.2963859435383212e-02  8.4037198245530131e-02  7.3209200249113246e-02  6.0698785121807722e-02  4.6780244776588237e-02  3.1775970597697455e-02  1.6049134715787571e-02  0.0000000000000000e+00  0.0000000000000000e+00  -2.3846427107197799e-04  -1.0071217000497412e-14  1.1632810648801320e-03  3.6531730700338676e-03  7.8061568753056056e-03  1.3876663980795404e-02  2.2023567668298952e-02  3.2300492456531743e-02  4.4650369061201595e-02  5.8904488597616211e-02  7.4786130045428237e-02  9.1918654117926629e-02  1.0983778068984995e-01  1.2800760215416090e-01  1.4583973761451913e-01  1.6271490824485249e-01  1.7800611721567414e-01  1.9110255203316961e-01  2.0143329552243663e-01  2.0848993530010362e-01  2.1184720040353033e-01  2.1118082647092251e-01  2.0628195501822533e-01  1.9706750448339450e-01  1.8358610674987030e-01  1.6601937880235981e-01  1.4467849222148121e-01  1.1999621403012192e-01  9.2514828568310808e-02  6.2870627692988734e-02  3.1775970597697531e-02  0.0000000000000000e+00  0.0000000000000000e+00  -9.3960724242944660e-04  -1.1632810649097099e-03  -2.1719589861365262e-14  3.1531295544476234e-03  8.8019941357225413e-03  1.7330399557728200e-02  2.8979849915975863e-02  4.3835032203570656e-02  6.1815630971038961e-02  8.2674846152702597e-02  1.0600472277984893e-01  1.3124813351309661e-01  1.5771699364939790e-01  1.8461604327855455e-01  2.1107131185249148e-01  2.3616219495566532e-01  2.5895592864325201e-01  2.7854314892207621e-01  2.9407317660467636e-01  3.0478767278104679e-01  3.1005136746678624e-01  3.0937867159306343e-01  3.0245513655873635e-01  2.8915292059489206e-01  2.6953965039870675e-01  2.4388032213206384e-01  2.1263215958771947e-01  1.7643262987463343e-01  1.3608109553388098e-01  9.2514828568311169e-02  4.6780244776588521e-02  0.0000000000000000e+00  0.0000000000000000e+00  -2.3042727539527492e-03  -3.6531730700721668e-03  -3.1531295545038692e-03  -3.6408795077571087e-14  6.4825795514111047e-03  1.6809928456577285e-02  3.1309492216017393e-02  5.0101558940953902e-02  7.3088336595755254e-02  9.9951879343063210e-02  1.3016100525340879e-01  1.6298699590461424e-01  1.9752752456194778e-01  2.3273793688793537e-01  2.6746871886035839e-01  3.0050774189368884e-01  3.3062568449071306e-01  3.5662290047371614e-01  3.7737594099886707e-01  3.9188194365518092e-01  3.9929917688045091e-01  3.9898216896814431e-01  3.9051005286596518e-01  3.7370701324760891e-01  3.4865402138852880e-01  3.1569137477362630e-01  2.7541190883311251e-01  2.2864510185240269e-01  1.7643262987463440e-01  1.1999621403012303e-01  6.0698785121808416e-02  0.0000000000000000e+00  0.0000000000000000e+00  -4.5004094602862860e-03  -7.8061568753517181e-03  -8.8019941357902545e-03  -6.4825795514987395e-03  -5.2711137897984047e-14  1.1295001391017568e-02  2.7819753598594496e-02  4.9735701472697028e-02  7.6934765179652101e-02  1.0903661536410110e-01  1.4539703932472908e-01  1.8512714112822512e-01  2.2712269548579300e-01  2.7010257777712554e-01  3.1265483617602241e-01  3.5328867016601850e-01  3.9049034448720998e-01  4.2278090783737987e-01  4.4877350768111235e-01  4.6722809938967169e-01  4.7710143948119660e-01  4.7759042554359554e-01  4.6816709295340725e-01  4.4860389127983119e-01  4.1898822915684220e-01  3.7972568089552794e-01  3.3153167440263231e-01  2.7541190883311456e-01  2.1263215958772225e-01  1.4467849222148366e-01  7.3209200249114620e-02  0.0000000000000000e+00  0.0000000000000000e+00  -7.6547198948303755e-03  -1.3876663980848258e-02  -1.7330399557805798e-02  -1.6809928456677670e-02  -1.1295001391138253e-02  -6.9022358666663205e-14  1.7586574113071164e-02  4.1673605670123882e-02  7.2151046430620480e-02  1.0858647841243638e-01  1.5023476777652317e-01  1.9606050839394890e-01  2.4477245564443254e-01  2.9486868254276244e-01  3.4469076998355930e-01  3.9248498698625411e-01  4.3646813907544046e-01  4.7489557410586292e-01  5.0612874227968685e-01  5.2869971445144448e-01  5.4137016987465758e-01  5.4318256726712799e-01  5.3350150369640414e-01  5.1204363308636547e-01  4.7889494577774039e-01  4.3451468548891536e-01  3.7972568089553155e-01  3.1569137477363152e-01  2.4388032213206923e-01  1.6601937880236411e-01  8.4037198245532491e-02  0.0000000000000000e+00  0.0000000000000000e+00  -1.1845907058438718e-02  -2.2023567668357336e-02  -2.8979849916061555e-02  -3.1309492216128193e-02  -2.7819753598727605e-02  -1.7586574113223272e-02  -8.3690156672327789e-14  2.5202960140628256e-02  5.7919397808592274e-02  9.7676297315716337e-02  1.4364129957341498e-01  1.9464809643677006e-01  2.4923554580851065e-01  3.0569906255238222e-01  3.6215235994562445e-01  4.1659720948694967e-01  4.6699856910707915e-01  5.1136221350820443e-01  5.4781189388860962e-01  5.7466306186422544e-01  5.9049031376228778e-01  5.9418594201941355e-01  5.8500731131377792e-01  5.6261119551313066e-01  5.2707370125308928e-01  4.7889494577774583e-01  4.1898822915685091e-01  3.4865402138853852e-01  2.6953965039871575e-01  1.8358610674987708e-01  9.2963859435386806e-02  0.0000000000000000e+00  0.0000000000000000e+00  -1.7099830733701856e-02  -3.2300492456594360e-02  -4.3835032203662520e-02  -5.0101558941072613e-02  -4.9735701472839497e-02  -4.1673605670286482e-02  -2.5202960140806925e-02  -9.5174119668750215e-14  3.3849020964506066e-02  7.5842799278680734e-02  1.2507666492789096e-01  1.8027060344908888e-01  2.3981260690248712e-01  3.0181574674518208e-01  3.6418682571895089e-01  4.2470401166592320e-01  4.8110050125328341e-01  5.3115101965476175e-01  5.7275784268741470e-01  6.0403303541203057e-01  6.2337373555534525e-01  6.2952756618904382e-01  6.2164563008139195e-01  5.9932100385134357e-01  5.6261119551313854e-01  5.1204363308637846e-01  4.4860389127984657e-01  3.7370701324762445e-01  2.8915292059490560e-01  1.9706750448340443e-01  9.9831534762140434e-02  0.0000000000000000e+00  0.0000000000000000e+00  -2.3386793109334957e-02  -4.4650369061267084e-02  -6.1815630971134981e-02  -7.3088336595879225e-02  -7.6934765179800732e-02  -7.2151046430789900e-02  -5.7919397808778084e-02  -3.3849020964703561e-02  -1.0218005819735008e-13  4.3110799083911119e-02  9.4522132061436601e-02  1.5285867849882440e-01  2.1637814282101764e-01  2.8303340200831661e-01  3.5054736096957173e-01  4.1649767933215420e-01  4.7840814451601033e-01  5.3384320055015810e-01  5.8050201042799077e-01  6.1630843702101634e-01  6.3949347347290653e-01  6.4866693303002232e-01  6.4287560975180724e-01  6.2164563008140239e-01  5.8500731131379613e-01  5.3350150369642668e-01  4.6816709295343117e-01  3.9051005286598783e-01  3.0245513655875544e-01  2.0628195501823909e-01  1.0454778922910044e-01  0.0000000000000000e+00  0.0000000000000000e+00  -3.0621082822281320e-02  -5.8904488597683227e-02  -8.2674846152800768e-02  -9.9951879343189859e-02  -1.0903661536425277e-01  -1.0858647841260889e-01  -9.7676297315905103e-02  -7.5842799278880851e-02  -4.3110799084117468e-02  -1.0373524375680631e-13  5.2487927839996208e-02  1.1290156254679291e-01  1.7939006237345256e-01  2.4976973448297352e-01  3.2160432896983254e-01  3.9229601071608400e-01  4.5918354241065823e-01  5.1964392555172023e-01  5.7119360357177373e-01  6.1158533793198733e-01  6.3889702394197845e-01  6.5160901225414358e-01  6.4866693303003564e-01  6.2952756618906736e-01  5.9418594201944397e-01  5.4318256726716174e-01  4.7759042554362940e-01  3.9898216896817529e-01  3.0937867159308907e-01  2.1118082647094072e-01  1.0708711123229131e-01  0.0000000000000000e+00  0.0000000000000000e+00  -3.8662815042994986e-02  -7.4786130045495433e-02  -1.0600472277994731e-01  -1.3016100525353552e-01  -1.4539703932488063e-01  -1.5023476777669514e-01  -1.4364129957360264e-01  -1.2507666492808919e-01  -9.4522132061640202e-02  -5.2487927840199899e-02  -9.9327406936999067e-14  6.1433731105818290e-02  1.2987638958380066e-01  2.0303244154014238e-01  2.7833261380886004e-01  3.5303020527977180e-01  4.2430511648426628e-01  4.8937161808262009e-01  5.4558572641269576e-01  5.9054806023382000e-01  6.2219821707525580e-01  6.3889702394199477e-01  6.3949347347293606e-01  6.2337373555538411e-01  5.9049031376233230e-01  5.4137016987470399e-01  4.7710143948124151e-01  3.9929917688049116e-01  3.1005136746681905e-01  2.1184720040355345e-01  1.0749027532541122e-01  0.0000000000000000e+00  0.0000000000000000e+00  -4.7322013896529333e-02  -9.1918654117992771e-02  -1.3124813351319334e-01  -1.6298699590473864e-01  -1.8512714112837358e-01  -1.9606050839411696e-01  -1.9464809643695280e-01  -1.8027060344928117e-01  -1.5285867849902085e-01  -1.1290156254698819e-01  -6.1433731106007201e-02  -8.8917441794439642e-14  6.9399612061456672e-02  1.4438318728253757e-01  2.2227559831921725e-01  3.0020920546350777e-01  3.7523271526679558e-01  4.4442403367423278e-01  5.0500278577976720e-01  5.5443817935561723e-01  5.9054806023383932e-01  6.1158533793202263e-01  6.1630843702106408e-01  6.0403303541208664e-01  5.7466306186428584e-01  5.2869971445150532e-01  4.6722809938972909e-01  3.9188194365523144e-01  3.0478767278108743e-01  2.0848993530013202e-01  1.0586136741839075e-01  0.0000000000000000e+00  0.0000000000000000e+00  -5.6364794915180871e-02  -1.0983778068991387e-01  -1.5771699364949121e-01  -1.9752752456206757e-01  -2.2712269548593558e-01  -2.4477245564459349e-01  -2.4923554580868501e-01  -2.3981260690266964e-01  -2.1637814282120296e-01  -1.7939006237363525e-01  -1.2987638958397563e-01  -6.9399612061619181e-02  -7.2913501156050126e-14  7.5879959595765961e-02  1.5548713881462725e-01  2.3586186026416700e-01  3.1395052333612850e-01  3.8672245116857917e-01  4.5128647615320511e-01  5.0500278577978897e-01  5.4558572641273650e-01  5.7119360357182980e-01  5.8050201042805827e-01  5.7275784268748908e-01  5.4781189388868690e-01  5.0612874227976290e-01  4.4877350768118279e-01  3.7737594099892824e-01  2.9407317660472521e-01  2.0143329552247063e-01  1.0236258391763936e-01  0.0000000000000000e+00  0.0000000000000000e+00  -6.5521422372439658e-02  -1.2800760215422149e-01  -1.8461604327864292e-01  -2.3273793688804864e-01  -2.7010257777725999e-01  -2.9486868254291365e-01  -3.0569906255254520e-01  -3.0181574674535161e-01  -2.8303340200848737e-01  -2.4976973448314016e-01  -2.0303244154029987e-01  -1.4438318728268124e-01  -7.5879959595891694e-02  -5.2264789331835336e-14  8.0453753151754348e-02  1.6245913099405987e-01  2.4289003342575202e-01  3.1863614170200949e-01  3.8672245116860304e-01  4.4442403367427796e-01  4.8937161808268359e-01  5.1964392555179817e-01  5.3384320055024626e-01  5.3115101965485567e-01  5.1136221350829958e-01  4.7489557410595462e-01  4.2278090783746380e-01  3.5662290047378842e-01  2.7854314892213355e-01  1.9110255203320936e-01  9.7207006863516840e-02  0.0000000000000000e+00  0.0000000000000000e+00  -7.4495942264113379e-02  -1.4583973761457558e-01  -2.1107131185257372e-01  -2.6746871886046347e-01  -3.1265483617614676e-01  -3.4469076998369841e-01  -3.6215235994577355e-01  -3.6418682571910477e-01  -3.5054736096972522e-01  -3.2160432896998026e-01  -2.7833261380899726e-01  -2.2227559831933930e-01  -1.5548713881473025e-01  -8.0453753151835228e-02  -2.8255302541887840e-14  8.2819325683039818e-02  1.6483604794432488e-01  2.4289003342577725e-01  3.1395052333617723e-01  3.7523271526686508e-01  4.2430511648435321e-01  4.5918354241075854e-01  4.7840814451611963e-01  4.8110050125339676e-01  4.6699856910719190e-01  4.3646813907554771e-01  3.9049034448730724e-01  3.3062568449079621e-01  2.5895592864331762e-01  1.7800611721571946e-01  9.0649636450398932e-02  0.0000000000000000e+00  0.0000000000000000e+00  -8.2977029152507875e-02  -1.6271490824490417e-01  -2.3616219495574042e-01  -3.0050774189378449e-01  -3.5328867016613119e-01  -3.9248498698637951e-01  -4.1659720948708306e-01  -4.2470401166605953e-01  -4.1649767933228826e-01  -3.9229601071621090e-01  -3.5303020527988671e-01  -3.0020920546360630e-01  -2.3586186026424560e-01  -1.6245913099411557e-01  -8.2819325683070655e-02  -2.4617126190218604e-15  8.2819325683065784e-02  1.6245913099411077e-01  2.3586186026424091e-01  3.0020920546360164e-01  3.5303020527988216e-01  3.9229601071620651e-01  4.1649767933228427e-01  4.2470401166605570e-01  4.1659720948707957e-01  3.9248498698637641e-01  3.5328867016612853e-01  3.0050774189378238e-01  2.3616219495573879e-01  1.6271490824490309e-01  8.2977029152507348e-02  0.0000000000000000e+00  0.0000000000000000e+00  -9.0649636450399446e-02  -1.7800611721572052e-01  -2.5895592864331929e-01  -3.3062568449079843e-01  -3.9049034448731007e-01  -4.3646813907555093e-01  -4.6699856910719550e-01  -4.8110050125340070e-01  -4.7840814451612373e-01  -4.5918354241076292e-01  -4.2430511648435776e-01  -3.7523271526686974e-01  -3.1395052333618184e-01  -2.4289003342578203e-01  -1.6483604794432977e-01  -8.2819325683044759e-02  2.3344317866109785e-14  8.0453753151830384e-02  1.5548713881472551e-01  2.2227559831933452e-01  2.7833261380899255e-01  3.2160432896997609e-01  3.5054736096972128e-01  3.6418682571910099e-01  3.6215235994577011e-01  3.4469076998369541e-01  3.1265483617614415e-01  2.6746871886046142e-01  2.1107131185257216e-01  1.4583973761457458e-01  7.4495942264112880e-02  0.0000000000000000e+00  0.0000000000000000e+00  -9.7207006863517353e-02  -1.9110255203321042e-01  -2.7854314892213522e-01  -3.5662290047379064e-01  -4.2278090783746658e-01  -4.7489557410595779e-01  -5.1136221350830324e-01  -5.3115101965485967e-01  -5.3384320055025047e-01  -5.1964392555180261e-01  -4.8937161808268803e-01  -4.4442403367428257e-01  -3.8672245116860771e-01  -3.1863614170201432e-01  -2.4289003342575693e-01  -1.6245913099406481e-01  -8.0453753151759205e-02  4.7496827497689729e-14  7.5879959595887003e-02  1.4438318728267657e-01  2.0303244154029543e-01  2.4976973448313600e-01  2.8303340200848359e-01  3.0181574674534806e-01  3.0569906255254198e-01  2.9486868254291076e-01  2.7010257777725755e-01  2.3273793688804667e-01  1.8461604327864142e-01  1.2800760215422052e-01  6.5521422372439159e-02  0.0000000000000000e+00  0.0000000000000000e+00  -1.0236258391763987e-01  -2.0143329552247174e-01  -2.9407317660472687e-01  -3.7737594099893051e-01  -4.4877350768118557e-01  -5.0612874227976601e-01  -5.4781189388869067e-01  -5.7275784268749330e-01  -5.8050201042806260e-01  -5.7119360357183413e-01  -5.4558572641274072e-01  -5.0500278577979341e-01  -4.5128647615320977e-01  -3.8672245116858406e-01  -3.1395052333613338e-01  -2.3586186026417183e-01  -1.5548713881463197e-01  -7.5879959595770569e-02  6.8378230200499448e-14  6.9399612061614713e-02  1.2987638958397135e-01  1.7939006237363125e-01  2.1637814282119927e-01  2.3981260690266626e-01  2.4923554580868196e-01  2.4477245564459074e-01  2.2712269548593328e-01  1.9752752456206568e-01  1.5771699364948977e-01  1.0983778068991289e-01  5.6364794915180400e-02  0.0000000000000000e+00  0.0000000000000000e+00  -1.0586136741839126e-01  -2.0848993530013310e-01  -3.0478767278108909e-01  -3.9188194365523354e-01  -4.6722809938973170e-01  -5.2869971445150843e-01  -5.7466306186428939e-01  -6.0403303541209041e-01  -6.1630843702106808e-01  -6.1158533793202674e-01  -5.9054806023384354e-01  -5.5443817935562167e-01  -5.0500278577977187e-01  -4.4442403367423755e-01  -3.7523271526680024e-01  -3.0020920546351237e-01  -2.2227559831922172e-01  -1.4438318728254196e-01  -6.9399612061460975e-02  8.4692323013121579e-14  6.1433731106003156e-02  1.1290156254698436e-01  1.5285867849901735e-01  1.8027060344927798e-01  1.9464809643694989e-01  1.9606050839411432e-01  1.8512714112837131e-01  1.6298699590473678e-01  1.3124813351319192e-01  9.1918654117991827e-02  4.7322013896528868e-02  0.0000000000000000e+00  0.0000000000000000e+00  -1.0749027532541172e-01  -2.1184720040355448e-01  -3.1005136746682060e-01  -3.9929917688049321e-01  -4.7710143948124406e-01  -5.4137016987470699e-01  -5.9049031376233585e-01  -6.2337373555538778e-01  -6.3949347347293994e-01  -6.3889702394199888e-01  -6.2219821707526002e-01  -5.9054806023382445e-01  -5.4558572641270053e-01  -4.8937161808262464e-01  -4.2430511648427072e-01  -3.5303020527977619e-01  -2.7833261380886420e-01  -2.0303244154014649e-01  -1.2987638958380468e-01  -6.1433731105822245e-02  9.5535930942135976e-14  5.2487927840196319e-02  9.4522132061636885e-02  1.2507666492808620e-01  1.4364129957359989e-01  1.5023476777669265e-01  1.4539703932487846e-01  1.3016100525353377e-01  1.0600472277994599e-01  7.4786130045494559e-02  3.8662815042994556e-02  0.0000000000000000e+00  0.0000000000000000e+00  -1.0708711123229178e-01  -2.1118082647094166e-01  -3.0937867159309052e-01  -3.9898216896817718e-01  -4.7759042554363174e-01  -5.4318256726716441e-01  -5.9418594201944719e-01  -6.2952756618907069e-01  -6.4866693303003942e-01  -6.5160901225414736e-01  -6.3889702394198244e-01  -6.1158533793199155e-01  -5.7119360357177806e-01  -5.1964392555172445e-01  -4.5918354241066228e-01  -3.9229601071608800e-01  -3.2160432896983637e-01  -2.4976973448297732e-01  -1.7939006237345628e-01  -1.1290156254679658e-01  -5.2487927839999733e-02  1.0041681936910254e-13  4.3110799084114360e-02  7.5842799278878020e-02  9.7676297315902522e-02  1.0858647841260660e-01  1.0903661536425080e-01  9.9951879343188249e-02  8.2674846152799547e-02  5.8904488597682408e-02  3.0621082822280918e-02  0.0000000000000000e+00  0.0000000000000000e+00  -1.0454778922910087e-01  -2.0628195501823998e-01  -3.0245513655875678e-01  -3.9051005286598961e-01  -4.6816709295343345e-01  -5.3350150369642924e-01  -5.8500731131379913e-01  -6.2164563008140572e-01  -6.4287560975181057e-01  -6.4866693303002587e-01  -6.3949347347291030e-01  -6.1630843702102034e-01  -5.8050201042799487e-01  -5.3384320055016199e-01  -4.7840814451601404e-01  -4.1649767933215792e-01  -3.5054736096957528e-01  -2.8303340200832006e-01  -2.1637814282102111e-01  -1.5285867849882778e-01  -9.4522132061439806e-02  -4.3110799083914159e-02  9.9333789078730361e-14  3.3849020964700938e-02  5.7919397808775697e-02  7.2151046430787791e-02  7.6934765179798942e-02  7.3088336595877754e-02  6.1815630971133850e-02  4.4650369061266348e-02  2.3386793109334589e-02  0.0000000000000000e+00  0.0000000000000000e+00  -9.9831534762140850e-02  -1.9706750448340526e-01  -2.8915292059490694e-01  -3.7370701324762612e-01  -4.4860389127984873e-01  -5.1204363308638079e-01  -5.6261119551314120e-01  -5.9932100385134657e-01  -6.2164563008139506e-01  -6.2952756618904693e-01  -6.2337373555534870e-01  -6.0403303541203401e-01  -5.7275784268741836e-01  -5.3115101965476530e-01  -4.8110050125328674e-01  -4.2470401166592647e-01  -3.6418682571895400e-01  -3.0181574674518519e-01  -2.3981260690249018e-01  -1.8027060344909185e-01  -1.2507666492789382e-01  -7.5842799278683481e-02  -3.3849020964508626e-02  9.2805218149282650e-14  2.520296014080477