<?xml version="1.0"?>
<VTKFile type="UnstructuredGrid"  version="0.1"  >
<UnstructuredGrid>
<Piece  NumberOfPoints="1089" NumberOfCells="2048">
<Points>
<DataArray  type="Float64"  NumberOfComponents="3"  format="ascii">0 0 0  0.03125 0 0  0.0625 0 0  0.09375 0 0  0.125 0 0  0.15625 0 0  0.1875 0 0  0.21875 0 0  0.25 0 0  0.28125 0 0  0.3125 0 0  0.34375 0 0  0.375 0 0  0.40625 0 0  0.4375 0 0  0.46875 0 0  0.5 0 0  0.53125 0 0  0.5625 0 0  0.59375 0 0  0.625 0 0  0.65625 0 0  0.6875 0 0  0.71875 0 0  0.75 0 0  0.78125 0 0  0.8125 0 0  0.84375 0 0  0.875 0 0  0.90625 0 0  0.9375 0 0  0.96875 0 0  1 0 0  0 0.03125 0  0.03125 0.03125 0  0.0625 0.03125 0  0.09375 0.03125 0  0.125 0.03125 0  0.15625 0.03125 0  0.1875 0.03125 0  0.21875 0.03125 0  0.25 0.03125 0  0.28125 0.03125 0  0.3125 0.03125 0  0.34375 0.03125 0  0.375 0.03125 0  0.40625 0.03125 0  0.4375 0.03125 0  0.46875 0.03125 0  0.5 0.03125 0  0.53125 0.03125 0  0.5625 0.03125 0  0.59375 0.03125 0  0.625 0.03125 0  0.65625 0.03125 0  0.6875 0.03125 0  0.71875 0.03125 0  0.75 0.03125 0  0.78125 0.03125 0  0.8125 0.03125 0  0.84375 0.03125 0  0.875 0.03125 0  0.90625 0.03125 0  0.9375 0.03125 0  0.96875 0.03125 0  1 0.03125 0  0 0.0625 0  0.03125 0.0625 0  0.0625 0.0625 0  0.09375 0.0625 0  0.125 0.0625 0  0.15625 0.0625 0  0.1875 0.0625 0  0.21875 0.0625 0  0.25 0.0625 0  0.28125 0.0625 0  0.3125 0.0625 0  0.34375 0.0625 0  0.375 0.0625 0  0.40625 0.0625 0  0.4375 0.0625 0  0.46875 0.0625 0  0.5 0.0625 0  0.53125 0.0625 0  0.5625 0.0625 0  0.59375 0.0625 0  0.625 0.0625 0  0.65625 0.0625 0  0.6875 0.0625 0  0.71875 0.0625 0  0.75 0.0625 0  0.78125 0.0625 0  0.8125 0.0625 0  0.84375 0.0625 0  0.875 0.0625 0  0.90625 0.0625 0  0.9375 0.0625 0  0.96875 0.0625 0  1 0.0625 0  0 0.09375 0  0.03125 0.09375 0  0.0625 0.09375 0  0.09375 0.09375 0  0.125 0.09375 0  0.15625 0.09375 0  0.1875 0.09375 0  0.21875 0.09375 0  0.25 0.09375 0  0.28125 0.09375 0  0.3125 0.09375 0  0.34375 0.09375 0  0.375 0.09375 0  0.40625 0.09375 0  0.4375 0.09375 0  0.46875 0.09375 0  0.5 0.09375 0  0.53125 0.09375 0  0.5625 0.09375 0  0.59375 0.09375 0  0.625 0.09375 0  0.65625 0.09375 0  0.6875 0.09375 0  0.71875 0.09375 0  0.75 0.09375 0  0.78125 0.09375 0  0.8125 0.09375 0  0.84375 0.09375 0  0.875 0.09375 0  0.90625 0.09375 0  0.9375 0.09375 0  0.96875 0.09375 0  1 0.09375 0  0 0.125 0  0.03125 0.125 0  0.0625 0.125 0  0.09375 0.125 0  0.125 0.125 0  0.15625 0.125 0  0.1875 0.125 0  0.21875 0.125 0  0.25 0.125 0  0.28125 0.125 0  0.3125 0.125 0  0.34375 0.125 0  0.375 0.125 0  0.40625 0.125 0  0.4375 0.125 0  0.46875 0.125 0  0.5 0.125 0  0.53125 0.125 0  0.5625 0.125 0  0.59375 0.125 0  0.625 0.125 0  0.65625 0.125 0  0.6875 0.125 0  0.71875 0.125 0  0.75 0.125 0  0.78125 0.125 0  0.8125 0.125 0  0.84375 0.125 0  0.875 0.125 0  0.90625 0.125 0  0.9375 0.125 0  0.96875 0.125 0  1 0.125 0  0 0.15625 0  0.03125 0.15625 0  0.0625 0.15625 0  0.09375 0.15625 0  0.125 0.15625 0  0.15625 0.15625 0  0.1875 0.15625 0  0.21875 0.15625 0  0.25 0.15625 0  0.28125 0.15625 0  0.3125 0.15625 0  0.34375 0.15625 0  0.375 0.15625 0  0.40625 0.15625 0  0.4375 0.15625 0  0.46875 0.15625 0  0.5 0.15625 0  0.53125 0.15625 0  0.5625 0.15625 0  0.59375 0.15625 0  0.625 0.15625 0  0.65625 0.15625 0  0.6875 0.15625 0  0.71875 0.15625 0  0.75 0.15625 0  0.78125 0.15625 0  0.8125 0.15625 0  0.84375 0.15625 0  0.875 0.15625 0  0.90625 0.15625 0  0.9375 0.15625 0  0.96875 0.15625 0  1 0.15625 0  0 0.1875 0  0.03125 0.1875 0  0.0625 0.1875 0  0.09375 0.1875 0  0.125 0.1875 0  0.15625 0.1875 0  0.1875 0.1875 0  0.21875 0.1875 0  0.25 0.1875 0  0.28125 0.1875 0  0.3125 0.1875 0  0.34375 0.1875 0  0.375 0.1875 0  0.40625 0.1875 0  0.4375 0.1875 0  0.46875 0.1875 0  0.5 0.1875 0  0.53125 0.1875 0  0.5625 0.1875 0  0.59375 0.1875 0  0.625 0.1875 0  0.65625 0.1875 0  0.6875 0.1875 0  0.71875 0.1875 0  0.75 0.1875 0  0.78125 0.1875 0  0.8125 0.1875 0  0.84375 0.1875 0  0.875 0.1875 0  0.90625 0.1875 0  0.9375 0.1875 0  0.96875 0.1875 0  1 0.1875 0  0 0.21875 0  0.03125 0.21875 0  0.0625 0.21875 0  0.09375 0.21875 0  0.125 0.21875 0  0.15625 0.21875 0  0.1875 0.21875 0  0.21875 0.21875 0  0.25 0.21875 0  0.28125 0.21875 0  0.3125 0.21875 0  0.34375 0.21875 0  0.375 0.21875 0  0.40625 0.21875 0  0.4375 0.21875 0  0.46875 0.21875 0  0.5 0.21875 0  0.53125 0.21875 0  0.5625 0.21875 0  0.59375 0.21875 0  0.625 0.21875 0  0.65625 0.21875 0  0.6875 0.21875 0  0.71875 0.21875 0  0.75 0.21875 0  0.78125 0.21875 0  0.8125 0.21875 0  0.84375 0.21875 0  0.875 0.21875 0  0.90625 0.21875 0  0.9375 0.21875 0  0.96875 0.21875 0  1 0.21875 0  0 0.25 0  0.03125 0.25 0  0.0625 0.25 0  0.09375 0.25 0  0.125 0.25 0  0.15625 0.25 0  0.1875 0.25 0  0.21875 0.25 0  0.25 0.25 0  0.28125 0.25 0  0.3125 0.25 0  0.34375 0.25 0  0.375 0.25 0  0.40625 0.25 0  0.4375 0.25 0  0.46875 0.25 0  0.5 0.25 0  0.53125 0.25 0  0.5625 0.25 0  0.59375 0.25 0  0.625 0.25 0  0.65625 0.25 0  0.6875 0.25 0  0.71875 0.25 0  0.75 0.25 0  0.78125 0.25 0  0.8125 0.25 0  0.84375 0.25 0  0.875 0.25 0  0.90625 0.25 0  0.9375 0.25 0  0.96875 0.25 0  1 0.25 0  0 0.28125 0  0.03125 0.28125 0  0.0625 0.28125 0  0.09375 0.28125 0  0.125 0.28125 0  0.15625 0.28125 0  0.1875 0.28125 0  0.21875 0.28125 0  0.25 0.28125 0  0.28125 0.28125 0  0.3125 0.28125 0  0.34375 0.28125 0  0.375 0.28125 0  0.40625 0.28125 0  0.4375 0.28125 0  0.46875 0.28125 0  0.5 0.28125 0  0.53125 0.28125 0  0.5625 0.28125 0  0.59375 0.28125 0  0.625 0.28125 0  0.65625 0.28125 0  0.6875 0.28125 0  0.71875 0.28125 0  0.75 0.28125 0  0.78125 0.28125 0  0.8125 0.28125 0  0.84375 0.28125 0  0.875 0.28125 0  0.90625 0.28125 0  0.9375 0.28125 0  0.96875 0.28125 0  1 0.28125 0  0 0.3125 0  0.03125 0.3125 0  0.0625 0.3125 0  0.09375 0.3125 0  0.125 0.3125 0  0.15625 0.3125 0  0.1875 0.3125 0  0.21875 0.3125 0  0.25 0.3125 0  0.28125 0.3125 0  0.3125 0.3125 0  0.34375 0.3125 0  0.375 0.3125 0  0.40625 0.3125 0  0.4375 0.3125 0  0.46875 0.3125 0  0.5 0.3125 0  0.53125 0.3125 0  0.5625 0.3125 0  0.59375 0.3125 0  0.625 0.3125 0  0.65625 0.3125 0  0.6875 0.3125 0  0.71875 0.3125 0  0.75 0.3125 0  0.78125 0.3125 0  0.8125 0.3125 0  0.84375 0.3125 0  0.875 0.3125 0  0.90625 0.3125 0  0.9375 0.3125 0  0.96875 0.3125 0  1 0.3125 0  0 0.34375 0  0.03125 0.34375 0  0.0625 0.34375 0  0.09375 0.34375 0  0.125 0.34375 0  0.15625 0.34375 0  0.1875 0.34375 0  0.21875 0.34375 0  0.25 0.34375 0  0.28125 0.34375 0  0.3125 0.34375 0  0.34375 0.34375 0  0.375 0.34375 0  0.40625 0.34375 0  0.4375 0.34375 0  0.46875 0.34375 0  0.5 0.34375 0  0.53125 0.34375 0  0.5625 0.34375 0  0.59375 0.34375 0  0.625 0.34375 0  0.65625 0.34375 0  0.6875 0.34375 0  0.71875 0.34375 0  0.75 0.34375 0  0.78125 0.34375 0  0.8125 0.34375 0  0.84375 0.34375 0  0.875 0.34375 0  0.90625 0.34375 0  0.9375 0.34375 0  0.96875 0.34375 0  1 0.34375 0  0 0.375 0  0.03125 0.375 0  0.0625 0.375 0  0.09375 0.375 0  0.125 0.375 0  0.15625 0.375 0  0.1875 0.375 0  0.21875 0.375 0  0.25 0.375 0  0.28125 0.375 0  0.3125 0.375 0  0.34375 0.375 0  0.375 0.375 0  0.40625 0.375 0  0.4375 0.375 0  0.46875 0.375 0  0.5 0.375 0  0.53125 0.375 0  0.5625 0.375 0  0.59375 0.375 0  0.625 0.375 0  0.65625 0.375 0  0.6875 0.375 0  0.71875 0.375 0  0.75 0.375 0  0.78125 0.375 0  0.8125 0.375 0  0.84375 0.375 0  0.875 0.375 0  0.90625 0.375 0  0.9375 0.375 0  0.96875 0.375 0  1 0.375 0  0 0.40625 0  0.03125 0.40625 0  0.0625 0.40625 0  0.09375 0.40625 0  0.125 0.40625 0  0.15625 0.40625 0  0.1875 0.40625 0  0.21875 0.40625 0  0.25 0.40625 0  0.28125 0.40625 0  0.3125 0.40625 0  0.34375 0.40625 0  0.375 0.40625 0  0.40625 0.40625 0  0.4375 0.40625 0  0.46875 0.40625 0  0.5 0.40625 0  0.53125 0.40625 0  0.5625 0.40625 0  0.59375 0.40625 0  0.625 0.40625 0  0.65625 0.40625 0  0.6875 0.40625 0  0.71875 0.40625 0  0.75 0.40625 0  0.78125 0.40625 0  0.8125 0.40625 0  0.84375 0.40625 0  0.875 0.40625 0  0.90625 0.40625 0  0.9375 0.40625 0  0.96875 0.40625 0  1 0.40625 0  0 0.4375 0  0.03125 0.4375 0  0.0625 0.4375 0  0.09375 0.4375 0  0.125 0.4375 0  0.15625 0.4375 0  0.1875 0.4375 0  0.21875 0.4375 0  0.25 0.4375 0  0.28125 0.4375 0  0.3125 0.4375 0  0.34375 0.4375 0  0.375 0.4375 0  0.40625 0.4375 0  0.4375 0.4375 0  0.46875 0.4375 0  0.5 0.4375 0  0.53125 0.4375 0  0.5625 0.4375 0  0.59375 0.4375 0  0.625 0.4375 0  0.65625 0.4375 0  0.6875 0.4375 0  0.71875 0.4375 0  0.75 0.4375 0  0.78125 0.4375 0  0.8125 0.4375 0  0.84375 0.4375 0  0.875 0.4375 0  0.90625 0.4375 0  0.9375 0.4375 0  0.96875 0.4375 0  1 0.4375 0  0 0.46875 0  0.03125 0.46875 0  0.0625 0.46875 0  0.09375 0.46875 0  0.125 0.46875 0  0.15625 0.46875 0  0.1875 0.46875 0  0.21875 0.46875 0  0.25 0.46875 0  0.28125 0.46875 0  0.3125 0.46875 0  0.34375 0.46875 0  0.375 0.46875 0  0.40625 0.46875 0  0.4375 0.46875 0  0.46875 0.46875 0  0.5 0.46875 0  0.53125 0.46875 0  0.5625 0.46875 0  0.59375 0.46875 0  0.625 0.46875 0  0.65625 0.46875 0  0.6875 0.46875 0  0.71875 0.46875 0  0.75 0.46875 0  0.78125 0.46875 0  0.8125 0.46875 0  0.84375 0.46875 0  0.875 0.46875 0  0.90625 0.46875 0  0.9375 0.46875 0  0.96875 0.46875 0  1 0.46875 0  0 0.5 0  0.03125 0.5 0  0.0625 0.5 0  0.09375 0.5 0  0.125 0.5 0  0.15625 0.5 0  0.1875 0.5 0  0.21875 0.5 0  0.25 0.5 0  0.28125 0.5 0  0.3125 0.5 0  0.34375 0.5 0  0.375 0.5 0  0.40625 0.5 0  0.4375 0.5 0  0.46875 0.5 0  0.5 0.5 0  0.53125 0.5 0  0.5625 0.5 0  0.59375 0.5 0  0.625 0.5 0  0.65625 0.5 0  0.6875 0.5 0  0.71875 0.5 0  0.75 0.5 0  0.78125 0.5 0  0.8125 0.5 0  0.84375 0.5 0  0.875 0.5 0  0.90625 0.5 0  0.9375 0.5 0  0.96875 0.5 0  1 0.5 0  0 0.53125 0  0.03125 0.53125 0  0.0625 0.53125 0  0.09375 0.53125 0  0.125 0.53125 0  0.15625 0.53125 0  0.1875 0.53125 0  0.21875 0.53125 0  0.25 0.53125 0  0.28125 0.53125 0  0.3125 0.53125 0  0.34375 0.53125 0  0.375 0.53125 0  0.40625 0.53125 0  0.4375 0.53125 0  0.46875 0.53125 0  0.5 0.53125 0  0.53125 0.53125 0  0.5625 0.53125 0  0.59375 0.53125 0  0.625 0.53125 0  0.65625 0.53125 0  0.6875 0.53125 0  0.71875 0.53125 0  0.75 0.53125 0  0.78125 0.531
[...]
<PointData  Scalars="theta"> 
<DataArray  type="Float64"  Name="theta"  format="ascii">-5.8704768529877133e-02  -4.9625615888795299e-02  -1.6653774937255576e-03  -8.9742806166497935e-02  -6.2444490113255660e-02  -1.0506391720688105e-02  -6.5053819685415432e-03  -2.7608396580992265e-02  -4.6688715220946406e-02  -3.2195152808410503e-02  -2.7291307803258341e-03  -1.8525655426757791e-02  -1.0778151163413181e-01  -8.1648665857296590e-02  -3.9847516313437421e-02  -1.2614999770967557e-02  -8.2185913056826484e-04  -6.6061117146057552e-03  -4.2118874536563537e-02  -1.0586000069251625e-01  -5.2950130406615337e-02  -1.1973129015644651e-01  -7.3659093681213469e-02  -3.7626418291573593e-02  -1.8228683992769668e-02  -1.0815408302709665e-02  -6.6061117146057700e-03  -1.4224870943814552e-03  -1.2825109846932655e-03  -5.6717942150871152e-04  -1.0686042414529025e-02  -7.4355204434535874e-03  -4.7258100922540625e-03  -6.2330538401667360e-04  -4.8443700985410572e-02  -4.5046213942118642e-02  -1.1340347328050897e-03  -8.1461430229924900e-02  -5.1529752743909085e-02  -7.1543017559714825e-03  -3.3022473670586746e-03  -1.4014512193007013e-02  -3.1792566484223253e-02  -2.6567728565976240e-02  -2.4772893354525804e-03  -1.2614999770967557e-02  -9.7835542090919811e-02  -6.7377210637250690e-02  -2.7134068813651328e-02  -6.4035978180175587e-03  -4.1719028385056356e-04  -4.4984156213102198e-03  -3.4756872652566065e-02  -9.6091346247343792e-02  -3.6056261846874729e-02  -1.0868260706404512e-01  -6.0784144091003349e-02  -2.5621617545846850e-02  -9.2532035799219384e-03  -5.4900932434094390e-03  -4.4984156213102302e-03  -1.1738490957638216e-03  -1.1641621603058871e-03  -3.8621944042506202e-04  -9.6999451629599526e-03  -6.1358580921795332e-03  -3.3726361571472734e-02  0.0000000000000000e+00  -3.7311118931316500e-02  -4.0037860169779005e-02  -5.7565616110905548e-04  -7.2404339174137980e-02  -3.9687982008400839e-02  -3.6316505704117302e-03  0.0000000000000000e+00  0.0000000000000000e+00  -1.6138471110882572e-02  -2.0462344125165174e-02  -2.2018579439413420e-03  -6.4035978180175587e-03  -8.6957935219683910e-02  -5.1893622250371037e-02  -1.3773734998309004e-02  0.0000000000000000e+00  0.0000000000000000e+00  -2.2834756226831729e-03  -2.6769585783940564e-02  -8.5407663550159413e-02  -1.8302798563650531e-02  -9.6598995647193681e-02  -4.6815672279058917e-02  -1.3005987886599957e-02  0.0000000000000000e+00  0.0000000000000000e+00  -2.2834756226831785e-03  -9.0409325316933317e-04  -1.0347276210419458e-03  -1.9605184390678737e-04  -8.6214803443445398e-03  -7.5760441448401522e-02  -2.7831295756881275e-02  -2.5004862076990368e-02  -2.5406915217329799e-02  -3.4530302907877369e-02  0.0000000000000000e+00  -6.2444490113255632e-02  -2.7025434318669238e-02  0.0000000000000000e+00  -4.6269628477158986e-02  -1.0557292430109741e-01  0.0000000000000000e+00  -1.3933783205293818e-02  -1.8989731579561154e-03  0.0000000000000000e+00  -7.4996111946205382e-02  -3.5336835200851888e-02  0.0000000000000000e+00  -1.8624045500465480e-02  -2.0443434377298312e-03  0.0000000000000000e+00  -1.8228683992769685e-02  -7.3659093681213594e-02  0.0000000000000000e+00  -8.3310960329794695e-02  -3.1879017582557879e-02  0.0000000000000000e+00  -3.5914504813382771e-02  -1.4937796610384659e-02  0.0000000000000000e+00  -6.1564009040086548e-04  -8.9239180191489622e-04  0.0000000000000000e+00  -6.4714463157423171e-04  -6.8769344071850369e-02  -2.1435537848571353e-02  -2.2697438541364186e-02  -1.2897001173371534e-02  -2.8494715350994432e-02  -2.3757143295908372e-02  -5.1529752743909064e-02  -1.3718590200238558e-02  -3.7657659082244426e-03  -4.1999913675127717e-02  -9.5830760976733501e-02  -9.1678637009885988e-02  -7.0730356995722431e-03  -1.5670496647393806e-03  -6.6976887368888530e-02  -6.1887463542954456e-02  -1.7937604827278214e-02  -6.6976887368888502e-02  -1.6905437304026296e-02  -1.8556934804296659e-03  -3.5914504813382729e-02  -9.2532035799219488e-03  -6.0784144091003460e-02  -1.2460019702876703e-01  -6.8748950930109784e-02  -1.6182355223027776e-02  -6.0531617547526083e-02  -3.2600350413266456e-02  -1.3559351755817111e-02  -2.0443434377298369e-03  -3.1250983837891456e-04  -7.3640971076813233e-04  -1.3689806389417148e-02  0.0000000000000000e+00  -6.1123391756165574e-02  -1.4596477091964287e-02  -2.0173879023417673e-02  0.0000000000000000e+00  -2.1946500613054937e-02  -2.1564857995096155e-02  -3.9687982008400818e-02  0.0000000000000000e+00  -3.4182648158552244e-03  -3.7330255391236168e-02  -8.5176050819278079e-02  -8.3218624549133313e-02  0.0000000000000000e+00  -1.2069345492405536e-03  -6.0796327532880889e-02  -4.7665443920234321e-02  0.0000000000000000e+00  -6.0796327532880855e-02  -1.5025847361052076e-02  -1.6493727127185743e-03  -3.2600350413266421e-02  0.0000000000000000e+00  -4.6815672279059001e-02  -1.1310221610479301e-01  -5.2950130406615309e-02  0.0000000000000000e+00  -5.4945820731345615e-02  -2.8975759716661557e-02  -1.2051788198888962e-02  -1.8556934804296709e-03  0.0000000000000000e+00  -1.7878530237166908e-02  -6.9491887368960895e-03  -2.5296645134594144e-02  -5.2715335513618726e-02  -7.4094308802097383e-03  -1.7398785813016408e-02  -8.9249609470262933e-02  -1.4944415937227668e-02  -1.9167221691443935e-02  -2.7025434318669227e-02  -7.2041215195196268e-02  -3.0382133534317167e-03  -3.2195152808410496e-02  -7.3459341303820300e-02  -7.3966164115386035e-02  -2.1602288649938808e-02  -8.2185913056826484e-04  -5.4036835675586314e-02  -3.2457667504078011e-02  -1.0778151163413176e-01  -5.4036835675586280e-02  -1.2958910856487012e-02  -1.4224870943814515e-03  -2.8975759716661522e-02  -8.5081180564068840e-02  -3.1879017582557942e-02  -1.0052722120252949e-01  -3.6056261846874715e-02  -8.5081180564068756e-02  -4.8836803247928905e-02  -2.4989890962190182e-02  -1.0393959500446368e-02  -1.6493727127185789e-03  -6.4623750816915479e-04  -9.0754593178484031e-03  0.0000000000000000e+00  -2.2962296151735385e-02  -4.3501167195091658e-02  0.0000000000000000e+00  -1.4357633945971622e-02  -8.1013745229018663e-02  -7.5860508144771840e-03  -1.6530602986809174e-02  -1.3718590200238554e-02  -6.5393324278434445e-02  -2.6202805781299610e-03  -2.6567728565976237e-02  -6.0619306639397789e-02  -6.3791472396566573e-02  -1.9608851169628631e-02  -4.1719028385056356e-04  -4.6603597099067667e-02  -1.6476088195054465e-02  -9.7835542090919755e-02  -4.6603597099067647e-02  -1.0693809350576816e-02  -1.1738490957638186e-03  -2.4989890962190151e-02  -7.7229974751858166e-02  -1.6182355223027807e-02  -8.6698824160204774e-02  -1.8302798563650524e-02  -7.7229974751858069e-02  -4.2118874536563496e-02  -2.0621881931349968e-02  -8.5771885096153563e-03  -2.3002408458029810e-02  0.0000000000000000e+00  0.0000000000000000e+00  -2.4620618756739168e-02  -2.0409289084351308e-02  -3.3504401807697530e-02  -2.5296645134594131e-02  -1.1058184590227465e-02  -7.2006428941561659e-02  0.0000000000000000e+00  -1.3641201698869803e-02  0.0000000000000000e+00  -5.8122726515067280e-02  -2.1622790107792330e-03  -2.0462344125165170e-02  -4.6688715220946406e-02  -5.2641294593054611e-02  -1.7428688729054891e-02  0.0000000000000000e+00  -3.8457705894245645e-02  0.0000000000000000e+00  -8.6957935219683855e-02  -3.8457705894245617e-02  -8.2363234928801016e-03  -9.0409325316933090e-04  -2.0621881931349940e-02  -6.8643347785090889e-02  0.0000000000000000e+00  -7.1544646518214280e-02  0.0000000000000000e+00  -6.8643347785090805e-02  -3.4756872652566023e-02  -1.5882879996305145e-02  -3.4988621995608329e-02  -2.0879769329338681e-02  -2.4620618756739193e-02  -6.4250848582096079e-02  -2.2348652808434399e-02  -1.7601813164556439e-02  -2.2814740498737621e-02  -2.2962296151735367e-02  -7.5300437614503552e-03  -6.2101315907572792e-02  -2.5004862076990368e-02  -1.0506391720688105e-02  -9.9316044402552886e-02  -5.0127437977114726e-02  -1.6653774937255570e-03  -1.3933783205293815e-02  -3.1792566484223253e-02  -4.0544086502627939e-02  -1.5031220413613218e-02  -1.8624045500465460e-02  -2.9619950772917389e-02  -1.1734230482937491e-01  -7.4996111946205340e-02  -2.9619950772917372e-02  -5.6085043461526329e-03  -6.1564009040086386e-04  -1.5882879996305124e-02  -5.9200855929335369e-02  -1.1973129015644655e-01  -5.5103362477280968e-02  -1.0586000069251608e-01  -5.9200855929335300e-02  -2.6769585783940536e-02  -6.2060452384387287e-04  -2.8872924368727716e-02  -1.8558302943272480e-02  -2.2348652808434420e-02  -5.8321844864906741e-02  -1.9863872184170309e-02  -1.4525173935586937e-02  -1.1581167271408330e-02  -2.0409289084351294e-02  -3.8223838823503880e-03  -5.1246562314539695e-02  -2.2697438541364186e-02  -7.1543017559714825e-03  -9.0151259665322767e-02  -4.1365610960414134e-02  -1.1340347328050895e-03  -7.0730356995722414e-03  -1.6138471110882572e-02  -2.7608396580992248e-02  -1.2403897765004987e-02  -1.6905437304026279e-02  -2.0169633063385619e-02  -1.0651407490136124e-01  -6.1887463542954421e-02  -2.0169633063385605e-02  -2.8469763650745103e-03  -3.1250983837891370e-04  -1.0815408302709651e-02  -4.8853076752385177e-02  -1.0868260706404517e-01  -3.7522499961130794e-02  -9.6091346247343640e-02  -4.8853076752385115e-02  -1.4267220660807408e-02  0.0000000000000000e+00  -2.2237795484307502e-02  -1.6005446329298376e-02  -1.9863872184170326e-02  -5.1837472346623913e-02  -1.7131423121370736e-02  -1.1187223130866031e-02  0.0000000000000000e+00  -1.7601813164556428e-02  0.0000000000000000e+00  -3.9469870023241115e-02  -2.0173879023417673e-02  -3.6316505704117302e-03  -8.0128011052106374e-02  -3.1859606075006416e-02  -5.7565616110905537e-04  0.0000000000000000e+00  0.0000000000000000e+00  -1.4014512193007003e-02  -9.5534258388179517e-03  -1.5025847361052058e-02  -1.0238463782786471e-02  -9.4671566460475184e-02  -4.7665443920234293e-02  -1.0238463782786464e-02  0.0000000000000000e+00  0.0000000000000000e+00  -5.4900932434094312e-03  -3.7626418291573642e-02  -9.6598995647193722e-02  -1.9047087058268887e-02  -8.5407663550159274e-02  -3.9280188896345540e-02  -1.1773438323554063e-02  -2.3002408458029800e-02  -1.5142772467643728e-02  -1.3207837719689764e-02  -1.7131423121370750e-02  -4.4706775400018106e-02  -1.4137003857256669e-02  -7.6179122402222502e-03  -7.5760441448401397e-02  -1.4525173935586928e-02  -4.9625615888795320e-02  -2.6876911495619153e-02  -1.7398785813016408e-02  0.0000000000000000e+00  -6.9105703484209233e-02  -2.1694720865790246e-02  0.0000000000000000e+00  -7.0864109429260802e-02  -1.1044977108767269e-01  0.0000000000000000e+00  -6.5053819685415466e-03  -1.2958910856486996e-02  0.0000000000000000e+00  -8.1648665857296646e-02  -3.2457667504077997e-02  0.0000000000000000e+00  -2.7291307803258341e-03  -1.4937796610384623e-02  0.0000000000000000e+00  -2.5621617545846881e-02  -8.3310960329794723e-02  0.0000000000000000e+00  -5.7122557170825048e-04  -3.5655452552501687e-02  -9.0678488345252543e-03  -2.0879769329338667e-02  -7.6867401104282690e-03  -1.0172616748115209e-02  -1.4137003857256683e-02  -3.6892431632673015e-02  -1.0888256295889472e-02  -3.8669874819660752e-03  -6.8769344071850244e-02  -1.1187223130866026e-02  -4.5046213942118662e-02  -1.3643197378765969e-02  -1.4357633945971622e-02  -4.8882091119072560e-02  -5.7026645702072484e-02  -1.1012625423775103e-02  -3.3104335438556309e-03  -6.4324840649260931e-02  -1.0025757724443055e-01  -7.0864109429260677e-02  -3.3022473670586763e-03  -1.0693809350576802e-02  -9.0103546508770241e-02  -6.7377210637250731e-02  -1.6476088195054459e-02  -4.1890371340093380e-02  -2.4772893354525804e-03  -1.3559351755817078e-02  -6.0531617547526145e-02  -1.3005987886599974e-02  -6.8748950930109812e-02  -5.1866005723657160e-03  0.0000000000000000e+00  -3.1691187752683973e-02  -6.1747294946165512e-03  -1.8558302943272473e-02  0.0000000000000000e+00  -6.9270185044175217e-03  -1.0888256295889482e-02  -2.8414383631148975e-02  -7.4143315048649031e-03  0.0000000000000000e+00  -6.1123391756165470e-02  -7.6179122402222459e-03  -4.0037860169779019e-02  0.0000000000000000e+00  -1.1058184590227465e-02  -4.4371300890696803e-02  -4.3921664050499923e-02  0.0000000000000000e+00  -3.0049500643347447e-03  -5.7173039640305366e-02  -8.9110682283558271e-02  -6.4324840649260834e-02  0.0000000000000000e+00  -8.2363234928800912e-03  -8.1788881816056647e-02  -5.1893622250371078e-02  0.0000000000000000e+00  -3.8024769984299531e-02  -2.2018579439413420e-03  -1.2051788198888934e-02  -5.4945820731345671e-02  0.0000000000000000e+00  -8.0660340255211196e-03  -2.6328105201053305e-03  -2.0504297752696292e-02  -2.7331788161760580e-02  -3.1344023017403910e-03  -1.6005446329298369e-02  -5.0284294356311765e-02  -3.5162775573204068e-03  -7.4143315048649100e-03  -1.9348705065592442e-02  -3.7636462868496901e-03  -4.8470222492334875e-02  -5.2715335513618643e-02  -3.8669874819660731e-03  -3.4530302907877390e-02  -8.4368222939617488e-02  -7.5300437614503552e-03  -3.9437985685004145e-02  -2.9908349754648310e-02  -4.8882091119072484e-02  -2.6708519976305989e-03  -4.9308388824285197e-02  -7.6852729854465465e-02  -5.7173039640305276e-02  -3.3104335438556387e-03  -5.6085043461526259e-03  -7.2695383851827472e-02  -3.5336835200851915e-02  -9.0103546508770241e-02  -3.3797078386556864e-02  -1.8989731579561154e-03  -1.0393959500446345e-02  -4.8836803247928953e-02  -5.0000657784221168e-04  -4.0944620549858961e-03  0.0000000000000000e+00  -1.8612181768597528e-02  -2.2554436483827583e-02  0.0000000000000000e+00  -1.3207837719689756e-02  -4.5644110222807684e-02  0.0000000000000000e+00  -3.7636462868496931e-03  -9.8217461584614793e-03  0.0000000000000000e+00  -4.3997439086791996e-02  -4.3501167195091596e-02  0.0000000000000000e+00  -2.8494715350994442e-02  -7.6582808140270534e-02  -3.8223838823503880e-03  -3.4012946396361862e-02  -1.5182009251410588e-02  -4.4371300890696741e-02  -2.3034529844805892e-03  -4.0689724260821167e-02  -6.3419561276141762e-02  -4.9308388824285121e-02  -3.0049500643347517e-03  -2.8469763650745068e-03  -6.2695499054236173e-02  -1.7937604827278228e-02  -8.1788881816056647e-02  -2.9147995151098650e-02  -1.5670496647393806e-03  -8.5771885096153373e-03  -2.6802168089751742e-03  0.0000000000000000e+00  0.0000000000000000e+00  -3.2708895551444698e-03  -1.6542831592087616e-02  -1.7371324753456648e-02  -3.7367823523344994e-03  -1.0172616748115206e-02  -4.0569280806217356e-02  -4.0598043003284680e-03  0.0000000000000000e+00  0.0000000000000000e+00  -4.2274874157358071e-03  -3.9105690796763459e-02  -3.3504401807697481e-02  -4.2334215386101402e-03  -2.1946500613054948e-02  -6.8068134819699630e-02  0.0000000000000000e+00  -2.8067788122178985e-02  0.0000000000000000e+00  -3.9437985685004090e-02  -1.9008300417254502e-03  -3.1339041202388555e-02  -4.8845458650210623e-02  -4.0689724260821104e-02  -2.6708519976306054e-03  0.0000000000000000e+00  -5.1736887571045581e-02  0.0000000000000000e+00  -7.2695383851827472e-02  -2.4053186764638721e-02  -1.2069345492405536e-03  -1.2631587537016030e-02  -2.4328890962060190e-03  -1.7223038280917563e-02  -2.6784713967933107e-02  -2.9690551551491465e-03  -1.4267220660807402e-02  -1.1828961121113252e-02  -3.3919558333662730e-03  -6.9270185044175191e-03  -3.4988621995608336e-02  -3.6851696407262258e-03  -4.5459459662176724e-02  -5.9368869143670802e-02  -3.8373791268119283e-03  -3.3726361571472768e-02  -2.2814740498737586e-02  -3.8427656547928603e-03  -1.4944415937227675e-02  -5.8704768529877119e-02  -4.0774724985494599e-03  -2.1617683196438735e-02  -9.9316044402552844e-02  -3.4012946396361807e-02  -1.4640106827592848e-03  -2.1340243488468247e-02  -3.3261195649532387e-02  -3.1339041202388507e-02  -2.3034529844805948e-03  -4.1890371340093380e-02  -3.9847516313437421e-02  -1.1734230482937484e-01  -6.2695499054236173e-02  -1.8525655426757791e-02  -4.0971301902355375e-04  -1.0423699214533367e-02  -2.1623942373412094e-03  -1.5633713622296486e-02  -2.4313047489056730e-02  -2.6389479766483572e-03  -1.1773438323554056e-02  -6.0045906460421267e-03  -3.0148294711934611e-03  -3.5162775573204059e-03  -2.8872924368727720e-02  -3.2754430142985704e-03  -4.1264506423947106e-02  -5.3890369581312679e-02  -3.4107294587541201e-03  -2.7831295756881303e-02  -1.1581167271408312e-02  -3.4155170987182314e-03  -7.5860508144771875e-03  -4.8443700985410565e-02  -3.7012074353768363e-03  -1.4720508521282091e-02  -9.0151259665322725e-02  -2.8067788122178944e-02  -9.9691449518310741e-04  -1.0832686414566417e-02  -1.6883973345460039e-02  -2.1340243488468216e-02  -1.9008300417254550e-03  -3.8024769984299531e-02  -2.7134068813651328e-02  -1.0651407490136117e-01  -5.1736887571045581e-02  -1.3831897145497622e-03  0.0000000000000000e+00  -8.0282858903545154e-03  -1.8649380287810867e-03  -1.3895517184821951e-02  -2.1609860418432898e-02  -2.2759376401583764e-03  -9.0678488345252491e-03  0.0000000000000000e+00  -2.6001133530728494e-03  0.0000000000000000e+00  -2.2237795484307508e-02  -2.8248772277443325e-03  -3.6676612607217857e-02  -4.7898699867801334e-02  -2.9415538404946305e-03  -2.1435537848571374e-02  0.0000000000000000e+00  -2.9456828987778050e-03  0.0000000000000000e+00  -3.7311118931316493e-02  -3.2896976857450504e-03  -7.4723914354665830e-03  -8.0128011052106332e-02  -2.1617683196438704e-02  -5.0605149441195667e-04  0.0000000000000000e+00  0.0000000000000000e+00  -1.0832686414566400e-02  -1.4640106827592887e-03  -3.3797078386556864e-02  -1.3773734998309004e-02  -9.4671566460475101e-02  -8.8493125297881749e-03  -1.1414205458222992e-03  -1.3286475011193236e-02  -5.4668416493272171e-03  -1.5389635711894880e-03  -1.1984067465615655e-02  -1.8637235428697396e-02  -1.8781241330533549e-03  -6.1747294946165477e-03  -3.4402397492971679e-02  -2.1456368359638266e-03  -4.0708977546331848e-02  -1.5142772467643732e-02  -2.3311139992264005e-03  -3.1631424296697054e-02  -4.1309815467538646e-02  -2.4273965854900580e-03  -1.4596477091964301e-02  -6.6181957641479730e-02  -2.4308039213816841e-03  -7.0460744297594011e-02  -2.5406915217329795e-02  -2.8371710446669154e-03  0.0000000000000000e+00  -6.9105703484209205e-02  -1.4720508521282066e-02  0.0000000000000000e+00  -9.1678637009886044e-02  -1.0557292430109740e-01  0.0000000000000000e+00  -9.9691449518310980e-04  -2.9147995151098650e-02  0.0000000000000000e+00  -3.0387649620771035e-04  -8.0327068655587884e-03  -8.7911693098448058e-04  -1.2060412453761748e-02  -2.7750658654506063e-03  -1.1853027672866581e-03  -9.8893598498358114e-03  -1.5379613665336543e-02  -1.4465226948129615e-03  -3.1344023017403893e-03  -3.1227778836294628e-02  -1.6525597661122106e-03  -3.6952394022197091e-02  -7.6867401104282716e-03  -1.7954134365949271e-03  -2.6102534747104472e-02  -3.4089229859639802e-02  -1.8695698481411875e-03  -7.4094308802097452e-03  -6.0074753121591981e-02  -1.8721941628014091e-03  -6.3958697646450249e-02  -1.2897001173371532e-02  -2.3412589671034795e-03  -7.2041215195196226e-02  -5.7026645702072457e-02  -7.4723914354665709e-03  -2.1602288649938798e-02  -8.3218624549133369e-02  -9.5830760976733487e-02  -4.6269628477158993e-02  -5.0605149441195786e-04  -2.4053186764638721e-02  -3.6777291448440247e-04  0.0000000000000000e+00  -7.1396098833370735e-03  -5.9863252487168906e-04  -1.0719504818629899e-02  0.0000000000000000e+00  -8.0712902153256140e-04  -7.6167401335198188e-03  -1.1845308738031565e-02  -9.8500609254603168e-04  0.0000000000000000e+00  -2.7755794173221559e-02  -1.1253065325238113e-03  -3.2843931938438958e-02  0.0000000000000000e+00  -1.2225823901875813e-03  -2.0104053954328200e-02  -2.6255370330872475e-02  -1.2730790173309684e-03  0.0000000000000000e+00  -5.3395487760789340e-02  -1.2748660379828707e-03  -5.6847605357026564e-02  0.0000000000000000e+00  -1.8032270448725047e-03  -6.5393324278434403e-02  -4.3921664050499902e-02  0.0000000000000000e+00  -1.9608851169628620e-02  -7.3966164115386077e-02  -8.5176050819278065e-02  -4.1999913675127724e-02  0.0000000000000000e+00  -1.2312635916921103e-03  -1.8668805988711061e-04  -8.8493125297881784e-03  -6.1574942034936676e-03  -3.0387649620771035e-04  -9.2449433321397361e-03  -1.3286475011193243e-02  -4.0971301902355381e-04  -5