<?xml version="1.0"?>
<VTKFile type="UnstructuredGrid"  version="0.1"  >
<UnstructuredGrid>
<Piece  NumberOfPoints="1089" NumberOfCells="2048">
<Points>
<DataArray  type="Float64"  NumberOfComponents="3"  format="ascii">0 0 0  0.03125 0 0  0.0625 0 0  0.09375 0 0  0.125 0 0  0.15625 0 0  0.1875 0 0  0.21875 0 0  0.25 0 0  0.28125 0 0  0.3125 0 0  0.34375 0 0  0.375 0 0  0.40625 0 0  0.4375 0 0  0.46875 0 0  0.5 0 0  0.53125 0 0  0.5625 0 0  0.59375 0 0  0.625 0 0  0.65625 0 0  0.6875 0 0  0.71875 0 0  0.75 0 0  0.78125 0 0  0.8125 0 0  0.84375 0 0  0.875 0 0  0.90625 0 0  0.9375 0 0  0.96875 0 0  1 0 0  0 0.03125 0  0.03125 0.03125 0  0.0625 0.03125 0  0.09375 0.03125 0  0.125 0.03125 0  0.15625 0.03125 0  0.1875 0.03125 0  0.21875 0.03125 0  0.25 0.03125 0  0.28125 0.03125 0  0.3125 0.03125 0  0.34375 0.03125 0  0.375 0.03125 0  0.40625 0.03125 0  0.4375 0.03125 0  0.46875 0.03125 0  0.5 0.03125 0  0.53125 0.03125 0  0.5625 0.03125 0  0.59375 0.03125 0  0.625 0.03125 0  0.65625 0.03125 0  0.6875 0.03125 0  0.71875 0.03125 0  0.75 0.03125 0  0.78125 0.03125 0  0.8125 0.03125 0  0.84375 0.03125 0  0.875 0.03125 0  0.90625 0.03125 0  0.9375 0.03125 0  0.96875 0.03125 0  1 0.03125 0  0 0.0625 0  0.03125 0.0625 0  0.0625 0.0625 0  0.09375 0.0625 0  0.125 0.0625 0  0.15625 0.0625 0  0.1875 0.0625 0  0.21875 0.0625 0  0.25 0.0625 0  0.28125 0.0625 0  0.3125 0.0625 0  0.34375 0.0625 0  0.375 0.0625 0  0.40625 0.0625 0  0.4375 0.0625 0  0.46875 0.0625 0  0.5 0.0625 0  0.53125 0.0625 0  0.5625 0.0625 0  0.59375 0.0625 0  0.625 0.0625 0  0.65625 0.0625 0  0.6875 0.0625 0  0.71875 0.0625 0  0.75 0.0625 0  0.78125 0.0625 0  0.8125 0.0625 0  0.84375 0.0625 0  0.875 0.0625 0  0.90625 0.0625 0  0.9375 0.0625 0  0.96875 0.0625 0  1 0.0625 0  0 0.09375 0  0.03125 0.09375 0  0.0625 0.09375 0  0.09375 0.09375 0  0.125 0.09375 0  0.15625 0.09375 0  0.1875 0.09375 0  0.21875 0.09375 0  0.25 0.09375 0  0.28125 0.09375 0  0.3125 0.09375 0  0.34375 0.09375 0  0.375 0.09375 0  0.40625 0.09375 0  0.4375 0.09375 0  0.46875 0.09375 0  0.5 0.09375 0  0.53125 0.09375 0  0.5625 0.09375 0  0.59375 0.09375 0  0.625 0.09375 0  0.65625 0.09375 0  0.6875 0.09375 0  0.71875 0.09375 0  0.75 0.09375 0  0.78125 0.09375 0  0.8125 0.09375 0  0.84375 0.09375 0  0.875 0.09375 0  0.90625 0.09375 0  0.9375 0.09375 0  0.96875 0.09375 0  1 0.09375 0  0 0.125 0  0.03125 0.125 0  0.0625 0.125 0  0.09375 0.125 0  0.125 0.125 0  0.15625 0.125 0  0.1875 0.125 0  0.21875 0.125 0  0.25 0.125 0  0.28125 0.125 0  0.3125 0.125 0  0.34375 0.125 0  0.375 0.125 0  0.40625 0.125 0  0.4375 0.125 0  0.46875 0.125 0  0.5 0.125 0  0.53125 0.125 0  0.5625 0.125 0  0.59375 0.125 0  0.625 0.125 0  0.65625 0.125 0  0.6875 0.125 0  0.71875 0.125 0  0.75 0.125 0  0.78125 0.125 0  0.8125 0.125 0  0.84375 0.125 0  0.875 0.125 0  0.90625 0.125 0  0.9375 0.125 0  0.96875 0.125 0  1 0.125 0  0 0.15625 0  0.03125 0.15625 0  0.0625 0.15625 0  0.09375 0.15625 0  0.125 0.15625 0  0.15625 0.15625 0  0.1875 0.15625 0  0.21875 0.15625 0  0.25 0.15625 0  0.28125 0.15625 0  0.3125 0.15625 0  0.34375 0.15625 0  0.375 0.15625 0  0.40625 0.15625 0  0.4375 0.15625 0  0.46875 0.15625 0  0.5 0.15625 0  0.53125 0.15625 0  0.5625 0.15625 0  0.59375 0.15625 0  0.625 0.15625 0  0.65625 0.15625 0  0.6875 0.15625 0  0.71875 0.15625 0  0.75 0.15625 0  0.78125 0.15625 0  0.8125 0.15625 0  0.84375 0.15625 0  0.875 0.15625 0  0.90625 0.15625 0  0.9375 0.15625 0  0.96875 0.15625 0  1 0.15625 0  0 0.1875 0  0.03125 0.1875 0  0.0625 0.1875 0  0.09375 0.1875 0  0.125 0.1875 0  0.15625 0.1875 0  0.1875 0.1875 0  0.21875 0.1875 0  0.25 0.1875 0  0.28125 0.1875 0  0.3125 0.1875 0  0.34375 0.1875 0  0.375 0.1875 0  0.40625 0.1875 0  0.4375 0.1875 0  0.46875 0.1875 0  0.5 0.1875 0  0.53125 0.1875 0  0.5625 0.1875 0  0.59375 0.1875 0  0.625 0.1875 0  0.65625 0.1875 0  0.6875 0.1875 0  0.71875 0.1875 0  0.75 0.1875 0  0.78125 0.1875 0  0.8125 0.1875 0  0.84375 0.1875 0  0.875 0.1875 0  0.90625 0.1875 0  0.9375 0.1875 0  0.96875 0.1875 0  1 0.1875 0  0 0.21875 0  0.03125 0.21875 0  0.0625 0.21875 0  0.09375 0.21875 0  0.125 0.21875 0  0.15625 0.21875 0  0.1875 0.21875 0  0.21875 0.21875 0  0.25 0.21875 0  0.28125 0.21875 0  0.3125 0.21875 0  0.34375 0.21875 0  0.375 0.21875 0  0.40625 0.21875 0  0.4375 0.21875 0  0.46875 0.21875 0  0.5 0.21875 0  0.53125 0.21875 0  0.5625 0.21875 0  0.59375 0.21875 0  0.625 0.21875 0  0.65625 0.21875 0  0.6875 0.21875 0  0.71875 0.21875 0  0.75 0.21875 0  0.78125 0.21875 0  0.8125 0.21875 0  0.84375 0.21875 0  0.875 0.21875 0  0.90625 0.21875 0  0.9375 0.21875 0  0.96875 0.21875 0  1 0.21875 0  0 0.25 0  0.03125 0.25 0  0.0625 0.25 0  0.09375 0.25 0  0.125 0.25 0  0.15625 0.25 0  0.1875 0.25 0  0.21875 0.25 0  0.25 0.25 0  0.28125 0.25 0  0.3125 0.25 0  0.34375 0.25 0  0.375 0.25 0  0.40625 0.25 0  0.4375 0.25 0  0.46875 0.25 0  0.5 0.25 0  0.53125 0.25 0  0.5625 0.25 0  0.59375 0.25 0  0.625 0.25 0  0.65625 0.25 0  0.6875 0.25 0  0.71875 0.25 0  0.75 0.25 0  0.78125 0.25 0  0.8125 0.25 0  0.84375 0.25 0  0.875 0.25 0  0.90625 0.25 0  0.9375 0.25 0  0.96875 0.25 0  1 0.25 0  0 0.28125 0  0.03125 0.28125 0  0.0625 0.28125 0  0.09375 0.28125 0  0.125 0.28125 0  0.15625 0.28125 0  0.1875 0.28125 0  0.21875 0.28125 0  0.25 0.28125 0  0.28125 0.28125 0  0.3125 0.28125 0  0.34375 0.28125 0  0.375 0.28125 0  0.40625 0.28125 0  0.4375 0.28125 0  0.46875 0.28125 0  0.5 0.28125 0  0.53125 0.28125 0  0.5625 0.28125 0  0.59375 0.28125 0  0.625 0.28125 0  0.65625 0.28125 0  0.6875 0.28125 0  0.71875 0.28125 0  0.75 0.28125 0  0.78125 0.28125 0  0.8125 0.28125 0  0.84375 0.28125 0  0.875 0.28125 0  0.90625 0.28125 0  0.9375 0.28125 0  0.96875 0.28125 0  1 0.28125 0  0 0.3125 0  0.03125 0.3125 0  0.0625 0.3125 0  0.09375 0.3125 0  0.125 0.3125 0  0.15625 0.3125 0  0.1875 0.3125 0  0.21875 0.3125 0  0.25 0.3125 0  0.28125 0.3125 0  0.3125 0.3125 0  0.34375 0.3125 0  0.375 0.3125 0  0.40625 0.3125 0  0.4375 0.3125 0  0.46875 0.3125 0  0.5 0.3125 0  0.53125 0.3125 0  0.5625 0.3125 0  0.59375 0.3125 0  0.625 0.3125 0  0.65625 0.3125 0  0.6875 0.3125 0  0.71875 0.3125 0  0.75 0.3125 0  0.78125 0.3125 0  0.8125 0.3125 0  0.84375 0.3125 0  0.875 0.3125 0  0.90625 0.3125 0  0.9375 0.3125 0  0.96875 0.3125 0  1 0.3125 0  0 0.34375 0  0.03125 0.34375 0  0.0625 0.34375 0  0.09375 0.34375 0  0.125 0.34375 0  0.15625 0.34375 0  0.1875 0.34375 0  0.21875 0.34375 0  0.25 0.34375 0  0.28125 0.34375 0  0.3125 0.34375 0  0.34375 0.34375 0  0.375 0.34375 0  0.40625 0.34375 0  0.4375 0.34375 0  0.46875 0.34375 0  0.5 0.34375 0  0.53125 0.34375 0  0.5625 0.34375 0  0.59375 0.34375 0  0.625 0.34375 0  0.65625 0.34375 0  0.6875 0.34375 0  0.71875 0.34375 0  0.75 0.34375 0  0.78125 0.34375 0  0.8125 0.34375 0  0.84375 0.34375 0  0.875 0.34375 0  0.90625 0.34375 0  0.9375 0.34375 0  0.96875 0.34375 0  1 0.34375 0  0 0.375 0  0.03125 0.375 0  0.0625 0.375 0  0.09375 0.375 0  0.125 0.375 0  0.15625 0.375 0  0.1875 0.375 0  0.21875 0.375 0  0.25 0.375 0  0.28125 0.375 0  0.3125 0.375 0  0.34375 0.375 0  0.375 0.375 0  0.40625 0.375 0  0.4375 0.375 0  0.46875 0.375 0  0.5 0.375 0  0.53125 0.375 0  0.5625 0.375 0  0.59375 0.375 0  0.625 0.375 0  0.65625 0.375 0  0.6875 0.375 0  0.71875 0.375 0  0.75 0.375 0  0.78125 0.375 0  0.8125 0.375 0  0.84375 0.375 0  0.875 0.375 0  0.90625 0.375 0  0.9375 0.375 0  0.96875 0.375 0  1 0.375 0  0 0.40625 0  0.03125 0.40625 0  0.0625 0.40625 0  0.09375 0.40625 0  0.125 0.40625 0  0.15625 0.40625 0  0.1875 0.40625 0  0.21875 0.40625 0  0.25 0.40625 0  0.28125 0.40625 0  0.3125 0.40625 0  0.34375 0.40625 0  0.375 0.40625 0  0.40625 0.40625 0  0.4375 0.40625 0  0.46875 0.40625 0  0.5 0.40625 0  0.53125 0.40625 0  0.5625 0.40625 0  0.59375 0.40625 0  0.625 0.40625 0  0.65625 0.40625 0  0.6875 0.40625 0  0.71875 0.40625 0  0.75 0.40625 0  0.78125 0.40625 0  0.8125 0.40625 0  0.84375 0.40625 0  0.875 0.40625 0  0.90625 0.40625 0  0.9375 0.40625 0  0.96875 0.40625 0  1 0.40625 0  0 0.4375 0  0.03125 0.4375 0  0.0625 0.4375 0  0.09375 0.4375 0  0.125 0.4375 0  0.15625 0.4375 0  0.1875 0.4375 0  0.21875 0.4375 0  0.25 0.4375 0  0.28125 0.4375 0  0.3125 0.4375 0  0.34375 0.4375 0  0.375 0.4375 0  0.40625 0.4375 0  0.4375 0.4375 0  0.46875 0.4375 0  0.5 0.4375 0  0.53125 0.4375 0  0.5625 0.4375 0  0.59375 0.4375 0  0.625 0.4375 0  0.65625 0.4375 0  0.6875 0.4375 0  0.71875 0.4375 0  0.75 0.4375 0  0.78125 0.4375 0  0.8125 0.4375 0  0.84375 0.4375 0  0.875 0.4375 0  0.90625 0.4375 0  0.9375 0.4375 0  0.96875 0.4375 0  1 0.4375 0  0 0.46875 0  0.03125 0.46875 0  0.0625 0.46875 0  0.09375 0.46875 0  0.125 0.46875 0  0.15625 0.46875 0  0.1875 0.46875 0  0.21875 0.46875 0  0.25 0.46875 0  0.28125 0.46875 0  0.3125 0.46875 0  0.34375 0.46875 0  0.375 0.46875 0  0.40625 0.46875 0  0.4375 0.46875 0  0.46875 0.46875 0  0.5 0.46875 0  0.53125 0.46875 0  0.5625 0.46875 0  0.59375 0.46875 0  0.625 0.46875 0  0.65625 0.46875 0  0.6875 0.46875 0  0.71875 0.46875 0  0.75 0.46875 0  0.78125 0.46875 0  0.8125 0.46875 0  0.84375 0.46875 0  0.875 0.46875 0  0.90625 0.46875 0  0.9375 0.46875 0  0.96875 0.46875 0  1 0.46875 0  0 0.5 0  0.03125 0.5 0  0.0625 0.5 0  0.09375 0.5 0  0.125 0.5 0  0.15625 0.5 0  0.1875 0.5 0  0.21875 0.5 0  0.25 0.5 0  0.28125 0.5 0  0.3125 0.5 0  0.34375 0.5 0  0.375 0.5 0  0.40625 0.5 0  0.4375 0.5 0  0.46875 0.5 0  0.5 0.5 0  0.53125 0.5 0  0.5625 0.5 0  0.59375 0.5 0  0.625 0.5 0  0.65625 0.5 0  0.6875 0.5 0  0.71875 0.5 0  0.75 0.5 0  0.78125 0.5 0  0.8125 0.5 0  0.84375 0.5 0  0.875 0.5 0  0.90625 0.5 0  0.9375 0.5 0  0.96875 0.5 0  1 0.5 0  0 0.53125 0  0.03125 0.53125 0  0.0625 0.53125 0  0.09375 0.53125 0  0.125 0.53125 0  0.15625 0.53125 0  0.1875 0.53125 0  0.21875 0.53125 0  0.25 0.53125 0  0.28125 0.53125 0  0.3125 0.53125 0  0.34375 0.53125 0  0.375 0.53125 0  0.40625 0.53125 0  0.4375 0.53125 0  0.46875 0.53125 0  0.5 0.53125 0  0.53125 0.53125 0  0.5625 0.53125 0  0.59375 0.53125 0  0.625 0.53125 0  0.65625 0.53125 0  0.6875 0.53125 0  0.71875 0.53125 0  0.75 0.53125 0  0.78125 0.531
[...]
<PointData  Scalars="phi"> 
<DataArray  type="Float64"  Name="phi"  format="ascii">0.0000000000000000e+00  0.0000000000000000e+00  0.0000000000000000e+00  0.0000000000000000e+00  0.0000000000000000e+00  0.0000000000000000e+00  0.0000000000000000e+00  0.0000000000000000e+00  0.0000000000000000e+00  0.0000000000000000e+00  0.0000000000000000e+00  0.0000000000000000e+00  0.0000000000000000e+00  0.0000000000000000e+00  0.0000000000000000e+00  0.0000000000000000e+00  0.0000000000000000e+00  0.0000000000000000e+00  0.0000000000000000e+00  0.0000000000000000e+00  0.0000000000000000e+00  0.0000000000000000e+00  0.0000000000000000e+00  0.0000000000000000e+00  0.0000000000000000e+00  0.0000000000000000e+00  0.0000000000000000e+00  0.0000000000000000e+00  0.0000000000000000e+00  0.0000000000000000e+00  0.0000000000000000e+00  0.0000000000000000e+00  0.0000000000000000e+00  0.0000000000000000e+00  -1.4483038334803060e-15  1.5158649566902248e-04  5.9739069183511540e-04  1.4652102497252429e-03  2.8619336010059556e-03  4.8682175031869272e-03  7.5341843002222327e-03  1.0876336097870413e-02  1.4875824849698812e-02  1.9478160105347156e-02  2.4594378131585312e-02  3.0103638099315648e-02  3.5857154716133759e-02  4.1683324007709105e-02  4.7393851835289054e-02  5.2790654948535055e-02  5.7673273427297708e-02  6.1846512454183288e-02  6.5128021299676986e-02  6.7355518606172449e-02  6.8393385523494263e-02  6.8138371569103795e-02  6.6524191490863596e-02  6.3524833852279083e-02  5.9156452389444517e-02  5.3477768526155330e-02  4.6588978084150558e-02  3.8629231203507065e-02  2.9772857272532167e-02  2.0224689268676301e-02  1.0215289420641392e-02  0.0000000000000000e+00  0.0000000000000000e+00  -1.5158649567473075e-04  -5.6277180363809580e-15  7.3971599139562873e-04  2.3232415456078993e-03  4.9647322225149643e-03  8.8261555101345202e-03  1.4008685454629010e-02  2.0546529824657933e-02  2.8403460577286634e-02  3.7472208430881948e-02  4.7576768239110098e-02  5.8477546922136761e-02  6.9879173830780225e-02  8.1440688633901914e-02  9.2787728029515459e-02  1.0352625333494830e-01  1.1325729934023304e-01  1.2159218309029940e-01  1.2816759112617648e-01  1.3265996598388191e-01  1.3479863740745862e-01  1.3437718994635331e-01  1.3126262478931291e-01  1.2540195762256037e-01  1.1682599337036648e-01  1.0565013024898919e-01  9.2072167707639319e-02  7.6367225620651374e-02  5.8880029714916723e-02  4.0014989812416371e-02  2.0224689268676349e-02  0.0000000000000000e+00  0.0000000000000000e+00  -5.9739069184348230e-04  -7.3971599141213040e-04  -1.2097673478353669e-14  2.0054252850593250e-03  5.5985401832403612e-03  1.1023666289656934e-02  1.8434588088066285e-02  2.7885308476531485e-02  3.9324834472919949e-02  5.2596229780024907e-02  6.7440002886065942e-02  8.3501729152710480e-02  1.0034363921340608e-01  1.1745975020780376e-01  1.3429397682127131e-01  1.5026054111179432e-01  1.6476590822194181e-01  1.7723141284236671e-01  1.8711571114603387e-01  1.9393619606591905e-01  1.9728855020493175e-01  1.9686367906442012e-01  1.9246136520335366e-01  1.8400010789767224e-01  1.7152275850807497e-01  1.5519772411586658e-01  1.3531568566841512e-01  1.1228195595488666e-01  8.6604779097203571e-02  5.8880029714916945e-02  2.9772857272532344e-02  0.0000000000000000e+00  0.0000000000000000e+00  -1.4652102497360504e-03  -2.3232415456292165e-03  -2.0054252850905769e-03  -2.0179301508557808e-14  4.1235251656564099e-03  1.0693186194583638e-02  1.9917480496923649e-02  3.1873088068866087e-02  4.6497915178487656e-02  6.3589770564497716e-02  8.2810764127158237e-02  1.0369729444227480e-01  1.2567527277338453e-01  1.4808002598946068e-01  1.7018013679632299e-01  1.9120432403595622e-01  2.1037034450128300e-01  2.2691481545101583e-01  2.4012281699946078e-01  2.4935613739914930e-01  2.5407907186007228e-01  2.5388077522449248e-01  2.4849329721302732e-01  2.3780459127933340e-01  2.2186597825272653e-01  2.0089375664285675e-01  1.7526487430169288e-01  1.4550680106815969e-01  1.1228195595488727e-01  7.6367225620652096e-02  3.8629231203507509e-02  0.0000000000000000e+00  0.0000000000000000e+00  -2.8619336010189270e-03  -4.9647322225405506e-03  -5.5985401832778642e-03  -4.1235251657048173e-03  -2.9014742104112385e-14  7.1853282215710483e-03  1.7698175780302264e-02  3.1641430782216678e-02  4.8946468046397434e-02  6.9371411532338806e-02  9.2506455298607043e-02  1.1778607901447843e-01  1.4450772495109065e-01  1.7185625058400636e-01  1.9893324421087599e-01  2.2479009908111405e-01  2.4846359186704922e-01  2.6901260967761942e-01  2.8555462018641253e-01  2.9730048378396323e-01  3.0358626486916890e-01  3.0390080929725793e-01  2.9790801243737886e-01  2.8546290123775153e-01  2.6662088644321302e-01  2.4163979844162964e-01  2.1097459150311412e-01  1.7526487430169424e-01  1.3531568566841684e-01  9.2072167707640845e-02  4.6588978084151446e-02  0.0000000000000000e+00  0.0000000000000000e+00  -4.8682175032017366e-03  -8.8261555101637260e-03  -1.1023666289699734e-02  -1.0693186194638847e-02  -7.1853282216371769e-03  -3.7637480383609973e-14  1.1188459064240599e-02  2.6513140231267489e-02  4.5904176928776547e-02  6.9086555191088861e-02  9.5586254943961751e-02  1.2474453021528747e-01  1.5573981929524697e-01  1.8761647788952263e-01  2.1931926093990692e-01  2.4973225236893437e-01  2.7772076529944190e-01  3.0217461515482080e-01  3.2205110913670387e-01  3.3641610022629598e-01  3.4448152194034265e-01  3.4563794902188116e-01  3.3948091412531578e-01  3.2582994423044370e-01  3.0473955388083729e-01  2.7650173456887495e-01  2.4163979844163191e-01  2.0089375664286008e-01  1.5519772411587002e-01  1.0565013024899192e-01  5.3477768526156835e-02  0.0000000000000000e+00  0.0000000000000000e+00  -7.5341843002385131e-03  -1.4008685454661111e-02  -1.8434588088113310e-02  -1.9917480496984264e-02  -1.7698175780374789e-02  -1.1188459064323041e-02  -4.5069512733263153e-14  1.6034735474181841e-02  3.6850432108307518e-02  6.2146246830499394e-02  9.1392657456581011e-02  1.2384762154772860e-01  1.5858146622996117e-01  1.9450958936720522e-01  2.3043174692508556e-01  2.6507644249323536e-01  2.9714873276540021e-01  3.2537962514107721e-01  3.4857517585921688e-01  3.6566340186379770e-01  3.7573719679835421e-01  3.7809158820094002e-01  3.7225388349609079e-01  3.5800551863130015e-01  3.3539473484379112e-01  3.0473955388084073e-01  2.6662088644321852e-01  2.2186597825273269e-01  1.7152275850808069e-01  1.1682599337037078e-01  5.9156452389446820e-02  0.0000000000000000e+00  0.0000000000000000e+00  -1.0876336097887775e-02  -2.0546529824692156e-02  -2.7885308476581577e-02  -3.1873088068930605e-02  -3.1641430782293770e-02  -2.6513140231354974e-02  -1.6034735474277285e-02  -5.0393168689173472e-14  2.1536354163132890e-02  4.8255485305682924e-02  7.9581857061085531e-02  1.1470107045903194e-01  1.5258745003224644e-01  1.9204036128245477e-01  2.3172789588546039e-01  2.7023627206012701e-01  3.0612307171347797e-01  3.3797228204530394e-01  3.6444903322568378e-01  3.8435192852622457e-01  3.9666094875568558e-01  4.0057907577504093e-01  3.9556601400286007e-01  3.8136268516208643e-01  3.5800551863130514e-01  3.2582994423045197e-01  2.8546290123776141e-01  2.3780459127934325e-01  1.8400010789768087e-01  1.2540195762256673e-01  6.3524833852282428e-02  0.0000000000000000e+00  0.0000000000000000e+00  -1.4875824849716841e-02  -2.8403460577322164e-02  -3.9324834472971928e-02  -4.6497915178554519e-02  -4.8946468046477211e-02  -4.5904176928866891e-02  -3.6850432108405815e-02  -2.1536354163236342e-02  -5.2869526854313209e-14  2.7429884996470623e-02  6.0141761827495768e-02  9.7260581824912595e-02  1.3767775994543557e-01  1.8009072219451844e-01  2.2305053882244807e-01  2.6501583855181643e-01  3.0441095168869137e-01  3.3968606110676158e-01  3.6937705632102302e-01  3.9216279045864277e-01  4.0691753276267667e-01  4.1275658680502608e-01  4.0907330004968634e-01  3.9556601400286684e-01  3.7225388349610222e-01  3.3948091412533016e-01  2.9790801243739407e-01  2.4849329721304167e-01  1.9246136520336579e-01  1.3126262478932166e-01  6.6524191490868176e-02  0.0000000000000000e+00  0.0000000000000000e+00  -1.9478160105365461e-02  -3.7472208430917996e-02  -5.2596229780077566e-02  -6.3589770564565384e-02  -6.9371411532419380e-02  -6.9086555191179871e-02  -6.2146246830598086e-02  -4.8255485305786355e-02  -2.7429884996575803e-02  -5.1961754208066002e-14  3.3396901630962386e-02  7.1837340257358218e-02  1.1414365467185006e-01  1.5892636344094707e-01  2.0463525937386084e-01  2.4961729804077415e-01  2.9217907452739866e-01  3.3065150032606655e-01  3.6345420148345831e-01  3.8915716339198819e-01  4.0653724681286446e-01  4.1462739009160093e-01  4.1275658680503469e-01  4.0057907577505603e-01  3.7809158820095934e-01  3.4563794902190270e-01  3.0390080929727953e-01  2.5388077522451219e-01  1.9686367906443641e-01  1.3437718994636488e-01  6.8138371569109804e-02  0.0000000000000000e+00  0.0000000000000000e+00  -2.4594378131603482e-02  -4.7576768239145861e-02  -6.7440002886118150e-02  -8.2810764127225212e-02  -9.2506455298686618e-02  -9.5586254944051291e-02  -9.1392657456677698e-02  -7.9581857061186367e-02  -6.0141761827597631e-02  -3.3396901631062202e-02  -4.7417128840108233e-14  3.9089504811354397e-02  8.2639199262696125e-02  1.2918842918529555e-01  1.7710233753103782e-01  2.2463315088493221e-01  2.6998637681387749e-01  3.1138938006410738e-01  3.4715970860360779e-01  3.7577054430931450e-01  3.9591075762614891e-01  4.0653724681287484e-01  4.0691753276269543e-01  3.9666094875571034e-01  3.7573719679838263e-01  3.4448152194037229e-01  3.0358626486919749e-01  2.5407907186009793e-01  1.9728855020495262e-01  1.3479863740747339e-01  6.8393385523501854e-02  0.0000000000000000e+00  0.0000000000000000e+00  -3.0103638099333321e-02  -5.8477546922171511e-02  -8.3501729152761134e-02  -1.0369729444233963e-01  -1.1778607901455525e-01  -1.2474453021537357e-01  -1.2384762154782113e-01  -1.1470107045912778e-01  -9.7260581825008602e-02  -7.1837340257451254e-02  -3.9089504811441557e-02  -3.9264986404048465e-14  4.4158573528209524e-02  9.1870587104089130e-02  1.4143382162870388e-01  1.9102354520838499e-01  2.3876178357623490e-01  2.8278913198677880e-01  3.2133635486062495e-01  3.5279302266931567e-01  3.7577054430932672e-01  3.8915716339201067e-01  3.9216279045867319e-01  3.8435192852626032e-01  3.6566340186383628e-01  3.3641610022633472e-01  2.9730048378399976e-01  2.4935613739918144e-01  1.9393619606594492e-01  1.3265996598390001e-01  6.7355518606181775e-02  0.0000000000000000e+00  0.0000000000000000e+00  -3.5857154716150592e-02  -6.9879173830813296e-02  -1.0034363921345418e-01  -1.2567527277344592e-01  -1.4450772495116312e-01  -1.5573981929532782e-01  -1.5858146623004749e-01  -1.5258745003233509e-01  -1.3767775994552348e-01  -1.1414365467193405e-01  -8.2639199262773244e-02  -4.4158573528277088e-02  -2.7847480753389224e-14  4.8282343909012322e-02  9.8936600443592621e-02  1.5007946919904308e-01  1.9976787516829542e-01  2.4607332218039196e-01  2.8715607987370523e-01  3.2133635486063872e-01  3.4715970860363365e-01  3.6345420148349394e-01  3.6937705632106588e-01  3.6444903322573130e-01  3.4857517585926634e-01  3.2205110913675228e-01  2.8555462018645728e-01  2.4012281699949975e-01  1.8711571114606501e-01  1.2816759112619813e-01  6.5128021299688102e-02  0.0000000000000000e+00  0.0000000000000000e+00  -4.1683324007724801e-02  -8.1440688633932695e-02  -1.1745975020784842e-01  -1.4808002598951753e-01  -1.7185625058407317e-01  -1.8761647788959679e-01  -1.9450958936728374e-01  -1.9204036128253460e-01  -1.8009072219459638e-01  -1.5892636344102004e-01  -1.2918842918536072e-01  -9.1870587104143822e-02  -4.8282343909054309e-02  -1.3780744321348915e-14  5.1192885739037713e-02  1.0337324497115477e-01  1.5455186897514656e-01  2.0274958567959284e-01  2.4607332218040717e-01  2.8278913198680744e-01  3.1138938006414774e-01  3.3065150032611612e-01  3.3968606110681765e-01  3.3797228204536373e-01  3.2537962514113783e-01  3.0217461515487920e-01  2.6901260967767271e-01  2.2691481545106182e-01  1.7723141284240318e-01  1.2159218309032467e-01  6.1846512454196208e-02  0.0000000000000000e+00  0.0000000000000000e+00  -4.7393851835303369e-02  -9.2787728029543520e-02  -1.3429397682131192e-01  -1.7018013679637445e-01  -1.9893324421093617e-01  -2.1931926093997314e-01  -2.3043174692515486e-01  -2.3172789588552989e-01  -2.2305053882251463e-01  -2.0463525937392141e-01  -1.7710233753108967e-01  -1.4143382162874432e-01  -9.8936600443619627e-02  -5.1192885739049690e-02  2.0518963656425761e-15  5.2698224174924764e-02  1.0488580332369277e-01  1.5455186897516260e-01  1.9976787516832645e-01  2.3876178357627906e-01  2.6998637681393284e-01  2.9217907452746245e-01  3.0441095168876087e-01  3.0612307171355013e-01  2.9714873276547193e-01  2.7772076529951017e-01  2.4846359186711109e-01  2.1037034450133590e-01  1.6476590822198359e-01  1.1325729934026189e-01  5.7673273427312419e-02  0.0000000000000000e+00  0.0000000000000000e+00  -5.2790654948547823e-02  -1.0352625333497328e-01  -1.5026054111183035e-01  -1.9120432403600163e-01  -2.2479009908116665e-01  -2.4973225236899171e-01  -2.6507644249329460e-01  -2.7023627206018525e-01  -2.6501583855187050e-01  -2.4961729804082131e-01  -2.2463315088496971e-01  -1.9102354520841033e-01  -1.5007946919905435e-01  -1.0337324497115057e-01  -5.2698224174904156e-02  1.8637959884574006e-14  5.2698224174941272e-02  1.0337324497118715e-01  1.5007946919909004e-01  1.9102354520844467e-01  2.2463315088500235e-01  2.4961729804085206e-01  2.6501583855189914e-01  2.7023627206021128e-01  2.6507644249331797e-01  2.4973225236901214e-01  2.2479009908118402e-01  1.9120432403601575e-01  1.5026054111184109e-01  1.0352625333498051e-01  5.2790654948551473e-02  0.0000000000000000e+00  0.0000000000000000e+00  -5.7673273427308797e-02  -1.1325729934025468e-01  -1.6476590822197290e-01  -2.1037034450132186e-01  -2.4846359186709385e-01  -2.7772076529948986e-01  -2.9714873276544884e-01  -3.0612307171352438e-01  -3.0441095168873267e-01  -2.9217907452743197e-01  -2.6998637681390036e-01  -2.3876178357624489e-01  -1.9976787516829089e-01  -1.5455186897512621e-01  -1.0488580332365585e-01  -5.2698224174887648e-02  3.4885310267335604e-14  5.1192885739086078e-02  9.8936600443655084e-02  1.4143382162877843e-01  1.7710233753112220e-01  2.0463525937395211e-01  2.2305053882254317e-01  2.3172789588555592e-01  2.3043174692517815e-01  2.1931926093999352e-01  1.9893324421095349e-01  1.7018013679638855e-01  1.3429397682132266e-01  9.2787728029550737e-02  4.7393851835307005e-02  0.0000000000000000e+00  0.0000000000000000e+00  -6.1846512454192655e-02  -1.2159218309031762e-01  -1.7723141284239269e-01  -2.2691481545104802e-01  -2.6901260967765589e-01  -3.0217461515485922e-01  -3.2537962514111507e-01  -3.3797228204533836e-01  -3.3968606110679006e-01  -3.3065150032608620e-01  -3.1138938006411576e-01  -2.8278913198677391e-01  -2.4607332218037217e-01  -2.0274958567955703e-01  -1.5455186897511025e-01  -1.0337324497111823e-01  -5.1192885739001312e-02  4.9660128818671620e-14  4.8282343909089281e-02  9.1870587104177531e-02  1.2918842918539286e-01  1.5892636344105038e-01  1.8009072219462458e-01  1.9204036128256036e-01  1.9450958936730683e-01  1.8761647788961699e-01  1.7185625058409038e-01  1.4808002598953146e-01  1.1745975020785902e-01  8.1440688633939815e-02  4.1683324007728381e-02  0.0000000000000000e+00  0.0000000000000000e+00  -6.5128021299684619e-02  -1.2816759112619125e-01  -1.8711571114605477e-01  -2.4012281699948629e-01  -2.8555462018644084e-01  -3.2205110913673296e-01  -3.4857517585924414e-01  -3.6444903322570660e-01  -3.6937705632103901e-01  -3.6345420148346486e-01  -3.4715970860360251e-01  -3.2133635486060608e-01  -2.8715607987367131e-01  -2.4607332218035713e-01  -1.9976787516826003e-01  -1.5007946919900739e-01  -9.8936600443557066e-02  -4.8282343908977274e-02  6.2013407445092884e-14  4.4158573528310034e-02  8.2639199262804705e-02  1.1414365467196372e-01  1.3767775994555109e-01  1.5258745003236035e-01  1.5858146623007011e-01  1.5573981929534758e-01  1.4450772495117986e-01  1.2567527277345955e-01  1.0034363921346452e-01  6.9879173830820263e-02  3.5857154716154097e-02  0.0000000000000000e+00  0.0000000000000000e+00  -6.7355518606178416e-02  -1.3265996598389340e-01  -1.9393619606593510e-01  -2.4935613739916845e-01  -2.9730048378398388e-01  -3.3641610022631596e-01  -3.6566340186381480e-01  -3.8435192852623645e-01  -3.9216279045864705e-01  -3.8915716339198247e-01  -3.7577054430929668e-01  -3.5279302266928414e-01  -3.2133635486059225e-01  -2.8278913198674516e-01  -2.3876178357620065e-01  -1.9102354520835052e-01  -1.4143382162866946e-01  -9.1870587104055226e-02  -4.4158573528176467e-02  7.1151723715425746e-14  3.9089504811471970e-02  7.1837340257479954e-02  9.7260581825035289e-02  1.1470107045915218e-01  1.2384762154784301e-01  1.2474453021539271e-01  1.1778607901457142e-01  1.0369729444235277e-01  8.3501729152771126e-02  5.8477546922178242e-02  3.0103638099336704e-02  0.0000000000000000e+00  0.0000000000000000e+00  -6.8393385523498662e-02  -1.3479863740746703e-01  -1.9728855020494324e-01  -2.5407907186008555e-01  -3.0358626486918217e-01  -3.4448152194035431e-01  -3.7573719679836215e-01  -3.9666094875568747e-01  -4.0691753276267040e-01  -4.0653724681284786e-01  -3.9591075762612027e-01  -3.7577054430928442e-01  -3.4715970860357664e-01  -3.1138938006407529e-01  -2.6998637681384485e-01  -2.2463315088489932e-01  -1.7710233753100502e-01  -1.2918842918526316e-01  -8.2639199262664539e-02  -3.9089504811323929e-02  7.6500204254006336e-14  3.3396901631089625e-02  6.0141761827623152e-02  7.9581857061209710e-02  9.1392657456698612e-02  9.5586254944069582e-02  9.2506455298702092e-02  8.2810764127237771e-02  6.7440002886127698e-02  4.7576768239152287e-02  2.4594378131606719e-02  0.0000000000000000e+00  0.0000000000000000e+00  -6.8138371569106793e-02  -1.3437718994635892e-01  -1.9686367906442753e-01  -2.5388077522450048e-01  -3.0390080929726510e-01  -3.4563794902188572e-01  -3.7809158820094002e-01  -4.0057907577503443e-01  -4.1275658680501104e-01  -4.1462739009157557e-01  -4.0653724681283748e-01  -3.8915716339195988e-01  -3.6345420148342888e-01  -3.3065150032603630e-01  -2.9217907452736785e-01  -2.4961729804074309e-01  -2.0463525937382987e-01  -1.5892636344091648e-01  -1.1414365467182026e-01  -7.1837340257329421e-02  -3.3396901630934922e-02  7.7860200175586311e-14  2.7429884996599888e-02  4.8255485305808393e-02  6.2146246830617834e-02  6.9086555191197149e-02  6.9371411532434021e-02  6.3589770564577264e-02  5.2596229780086580e-02  3.7472208430924060e-02  1.9478160105368514e-02  0.0000000000000000e+00  0.0000000000000000e+00  -6.6524191490865386e-02  -1.3126262478931611e-01  -1.9246136520335758e-01  -2.4849329721303084e-01  -2.9790801243738085e-01  -3.3948091412531456e-01  -3.7225388349608424e-01  -3.9556601400284680e-01  -4.0907330004966436e-01  -4.1275658680500249e-01  -4.0691753276265163e-01  -3.9216279045861657e-01  -3.6937705632099560e-01  -3.3968606110673338e-01  -3.0441095168866272e-01  -2.6501583855178756e-01  -2.2305053882241921e-01  -1.8009072219448996e-01  -1.3767775994540785e-01  -9.7260581824885811e-02  -6.0141761827470212e-02  -2.7429884996446521e-02  7.5286887471475656e-14  2.1536354163256846e-02  3.6850432108424196e-02  4.5904176928882968e-02  4.8946468046490846e-02  4.6497915178565594e-02  3.9324834472980318e-02  2.8403460577327816e-02  1.4875824849719693e-02  0.0000000000000000e+00  0.0000000000000000e+00  -6.3524833852279874e-02  -1.2540195762256168e-01  -1.8400010789767332e-01  -2.3780459127933337e-01  -2.8546290123774920e-01  -3.2582994423043765e-01  -3.5800551863128877e-01  -3.8136268516206812e-01  -3.9556601400284003e-01  -4.0057907577501933e-01  -3.9666094875566271e-01  -3.8435192852620059e-01  -3.6444903322565891e-01  -3.3797228204527818e-01  -3.0612307171345177e-01  -2.7023627206010059e-01  -2.3172789588543397e-01  -1.9204036128242874e-01  -1.5258745003222096e-01  -1.1470107045900738e-01  -7.9581857061062120e-02  -4.8255485305660831e-02  -2.1536354163112361e-02  6.9169704991135368e-14  1.6034735474294112e