<?xml version="1.0"?>
<VTKFile type="UnstructuredGrid"  version="0.1"  >
<UnstructuredGrid>
<Piece  NumberOfPoints="1089" NumberOfCells="2048">
<Points>
<DataArray  type="Float64"  NumberOfComponents="3"  format="ascii">0 0 0  0.03125 0 0  0.0625 0 0  0.09375 0 0  0.125 0 0  0.15625 0 0  0.1875 0 0  0.21875 0 0  0.25 0 0  0.28125 0 0  0.3125 0 0  0.34375 0 0  0.375 0 0  0.40625 0 0  0.4375 0 0  0.46875 0 0  0.5 0 0  0.53125 0 0  0.5625 0 0  0.59375 0 0  0.625 0 0  0.65625 0 0  0.6875 0 0  0.71875 0 0  0.75 0 0  0.78125 0 0  0.8125 0 0  0.84375 0 0  0.875 0 0  0.90625 0 0  0.9375 0 0  0.96875 0 0  1 0 0  0 0.03125 0  0.03125 0.03125 0  0.0625 0.03125 0  0.09375 0.03125 0  0.125 0.03125 0  0.15625 0.03125 0  0.1875 0.03125 0  0.21875 0.03125 0  0.25 0.03125 0  0.28125 0.03125 0  0.3125 0.03125 0  0.34375 0.03125 0  0.375 0.03125 0  0.40625 0.03125 0  0.4375 0.03125 0  0.46875 0.03125 0  0.5 0.03125 0  0.53125 0.03125 0  0.5625 0.03125 0  0.59375 0.03125 0  0.625 0.03125 0  0.65625 0.03125 0  0.6875 0.03125 0  0.71875 0.03125 0  0.75 0.03125 0  0.78125 0.03125 0  0.8125 0.03125 0  0.84375 0.03125 0  0.875 0.03125 0  0.90625 0.03125 0  0.9375 0.03125 0  0.96875 0.03125 0  1 0.03125 0  0 0.0625 0  0.03125 0.0625 0  0.0625 0.0625 0  0.09375 0.0625 0  0.125 0.0625 0  0.15625 0.0625 0  0.1875 0.0625 0  0.21875 0.0625 0  0.25 0.0625 0  0.28125 0.0625 0  0.3125 0.0625 0  0.34375 0.0625 0  0.375 0.0625 0  0.40625 0.0625 0  0.4375 0.0625 0  0.46875 0.0625 0  0.5 0.0625 0  0.53125 0.0625 0  0.5625 0.0625 0  0.59375 0.0625 0  0.625 0.0625 0  0.65625 0.0625 0  0.6875 0.0625 0  0.71875 0.0625 0  0.75 0.0625 0  0.78125 0.0625 0  0.8125 0.0625 0  0.84375 0.0625 0  0.875 0.0625 0  0.90625 0.0625 0  0.9375 0.0625 0  0.96875 0.0625 0  1 0.0625 0  0 0.09375 0  0.03125 0.09375 0  0.0625 0.09375 0  0.09375 0.09375 0  0.125 0.09375 0  0.15625 0.09375 0  0.1875 0.09375 0  0.21875 0.09375 0  0.25 0.09375 0  0.28125 0.09375 0  0.3125 0.09375 0  0.34375 0.09375 0  0.375 0.09375 0  0.40625 0.09375 0  0.4375 0.09375 0  0.46875 0.09375 0  0.5 0.09375 0  0.53125 0.09375 0  0.5625 0.09375 0  0.59375 0.09375 0  0.625 0.09375 0  0.65625 0.09375 0  0.6875 0.09375 0  0.71875 0.09375 0  0.75 0.09375 0  0.78125 0.09375 0  0.8125 0.09375 0  0.84375 0.09375 0  0.875 0.09375 0  0.90625 0.09375 0  0.9375 0.09375 0  0.96875 0.09375 0  1 0.09375 0  0 0.125 0  0.03125 0.125 0  0.0625 0.125 0  0.09375 0.125 0  0.125 0.125 0  0.15625 0.125 0  0.1875 0.125 0  0.21875 0.125 0  0.25 0.125 0  0.28125 0.125 0  0.3125 0.125 0  0.34375 0.125 0  0.375 0.125 0  0.40625 0.125 0  0.4375 0.125 0  0.46875 0.125 0  0.5 0.125 0  0.53125 0.125 0  0.5625 0.125 0  0.59375 0.125 0  0.625 0.125 0  0.65625 0.125 0  0.6875 0.125 0  0.71875 0.125 0  0.75 0.125 0  0.78125 0.125 0  0.8125 0.125 0  0.84375 0.125 0  0.875 0.125 0  0.90625 0.125 0  0.9375 0.125 0  0.96875 0.125 0  1 0.125 0  0 0.15625 0  0.03125 0.15625 0  0.0625 0.15625 0  0.09375 0.15625 0  0.125 0.15625 0  0.15625 0.15625 0  0.1875 0.15625 0  0.21875 0.15625 0  0.25 0.15625 0  0.28125 0.15625 0  0.3125 0.15625 0  0.34375 0.15625 0  0.375 0.15625 0  0.40625 0.15625 0  0.4375 0.15625 0  0.46875 0.15625 0  0.5 0.15625 0  0.53125 0.15625 0  0.5625 0.15625 0  0.59375 0.15625 0  0.625 0.15625 0  0.65625 0.15625 0  0.6875 0.15625 0  0.71875 0.15625 0  0.75 0.15625 0  0.78125 0.15625 0  0.8125 0.15625 0  0.84375 0.15625 0  0.875 0.15625 0  0.90625 0.15625 0  0.9375 0.15625 0  0.96875 0.15625 0  1 0.15625 0  0 0.1875 0  0.03125 0.1875 0  0.0625 0.1875 0  0.09375 0.1875 0  0.125 0.1875 0  0.15625 0.1875 0  0.1875 0.1875 0  0.21875 0.1875 0  0.25 0.1875 0  0.28125 0.1875 0  0.3125 0.1875 0  0.34375 0.1875 0  0.375 0.1875 0  0.40625 0.1875 0  0.4375 0.1875 0  0.46875 0.1875 0  0.5 0.1875 0  0.53125 0.1875 0  0.5625 0.1875 0  0.59375 0.1875 0  0.625 0.1875 0  0.65625 0.1875 0  0.6875 0.1875 0  0.71875 0.1875 0  0.75 0.1875 0  0.78125 0.1875 0  0.8125 0.1875 0  0.84375 0.1875 0  0.875 0.1875 0  0.90625 0.1875 0  0.9375 0.1875 0  0.96875 0.1875 0  1 0.1875 0  0 0.21875 0  0.03125 0.21875 0  0.0625 0.21875 0  0.09375 0.21875 0  0.125 0.21875 0  0.15625 0.21875 0  0.1875 0.21875 0  0.21875 0.21875 0  0.25 0.21875 0  0.28125 0.21875 0  0.3125 0.21875 0  0.34375 0.21875 0  0.375 0.21875 0  0.40625 0.21875 0  0.4375 0.21875 0  0.46875 0.21875 0  0.5 0.21875 0  0.53125 0.21875 0  0.5625 0.21875 0  0.59375 0.21875 0  0.625 0.21875 0  0.65625 0.21875 0  0.6875 0.21875 0  0.71875 0.21875 0  0.75 0.21875 0  0.78125 0.21875 0  0.8125 0.21875 0  0.84375 0.21875 0  0.875 0.21875 0  0.90625 0.21875 0  0.9375 0.21875 0  0.96875 0.21875 0  1 0.21875 0  0 0.25 0  0.03125 0.25 0  0.0625 0.25 0  0.09375 0.25 0  0.125 0.25 0  0.15625 0.25 0  0.1875 0.25 0  0.21875 0.25 0  0.25 0.25 0  0.28125 0.25 0  0.3125 0.25 0  0.34375 0.25 0  0.375 0.25 0  0.40625 0.25 0  0.4375 0.25 0  0.46875 0.25 0  0.5 0.25 0  0.53125 0.25 0  0.5625 0.25 0  0.59375 0.25 0  0.625 0.25 0  0.65625 0.25 0  0.6875 0.25 0  0.71875 0.25 0  0.75 0.25 0  0.78125 0.25 0  0.8125 0.25 0  0.84375 0.25 0  0.875 0.25 0  0.90625 0.25 0  0.9375 0.25 0  0.96875 0.25 0  1 0.25 0  0 0.28125 0  0.03125 0.28125 0  0.0625 0.28125 0  0.09375 0.28125 0  0.125 0.28125 0  0.15625 0.28125 0  0.1875 0.28125 0  0.21875 0.28125 0  0.25 0.28125 0  0.28125 0.28125 0  0.3125 0.28125 0  0.34375 0.28125 0  0.375 0.28125 0  0.40625 0.28125 0  0.4375 0.28125 0  0.46875 0.28125 0  0.5 0.28125 0  0.53125 0.28125 0  0.5625 0.28125 0  0.59375 0.28125 0  0.625 0.28125 0  0.65625 0.28125 0  0.6875 0.28125 0  0.71875 0.28125 0  0.75 0.28125 0  0.78125 0.28125 0  0.8125 0.28125 0  0.84375 0.28125 0  0.875 0.28125 0  0.90625 0.28125 0  0.9375 0.28125 0  0.96875 0.28125 0  1 0.28125 0  0 0.3125 0  0.03125 0.3125 0  0.0625 0.3125 0  0.09375 0.3125 0  0.125 0.3125 0  0.15625 0.3125 0  0.1875 0.3125 0  0.21875 0.3125 0  0.25 0.3125 0  0.28125 0.3125 0  0.3125 0.3125 0  0.34375 0.3125 0  0.375 0.3125 0  0.40625 0.3125 0  0.4375 0.3125 0  0.46875 0.3125 0  0.5 0.3125 0  0.53125 0.3125 0  0.5625 0.3125 0  0.59375 0.3125 0  0.625 0.3125 0  0.65625 0.3125 0  0.6875 0.3125 0  0.71875 0.3125 0  0.75 0.3125 0  0.78125 0.3125 0  0.8125 0.3125 0  0.84375 0.3125 0  0.875 0.3125 0  0.90625 0.3125 0  0.9375 0.3125 0  0.96875 0.3125 0  1 0.3125 0  0 0.34375 0  0.03125 0.34375 0  0.0625 0.34375 0  0.09375 0.34375 0  0.125 0.34375 0  0.15625 0.34375 0  0.1875 0.34375 0  0.21875 0.34375 0  0.25 0.34375 0  0.28125 0.34375 0  0.3125 0.34375 0  0.34375 0.34375 0  0.375 0.34375 0  0.40625 0.34375 0  0.4375 0.34375 0  0.46875 0.34375 0  0.5 0.34375 0  0.53125 0.34375 0  0.5625 0.34375 0  0.59375 0.34375 0  0.625 0.34375 0  0.65625 0.34375 0  0.6875 0.34375 0  0.71875 0.34375 0  0.75 0.34375 0  0.78125 0.34375 0  0.8125 0.34375 0  0.84375 0.34375 0  0.875 0.34375 0  0.90625 0.34375 0  0.9375 0.34375 0  0.96875 0.34375 0  1 0.34375 0  0 0.375 0  0.03125 0.375 0  0.0625 0.375 0  0.09375 0.375 0  0.125 0.375 0  0.15625 0.375 0  0.1875 0.375 0  0.21875 0.375 0  0.25 0.375 0  0.28125 0.375 0  0.3125 0.375 0  0.34375 0.375 0  0.375 0.375 0  0.40625 0.375 0  0.4375 0.375 0  0.46875 0.375 0  0.5 0.375 0  0.53125 0.375 0  0.5625 0.375 0  0.59375 0.375 0  0.625 0.375 0  0.65625 0.375 0  0.6875 0.375 0  0.71875 0.375 0  0.75 0.375 0  0.78125 0.375 0  0.8125 0.375 0  0.84375 0.375 0  0.875 0.375 0  0.90625 0.375 0  0.9375 0.375 0  0.96875 0.375 0  1 0.375 0  0 0.40625 0  0.03125 0.40625 0  0.0625 0.40625 0  0.09375 0.40625 0  0.125 0.40625 0  0.15625 0.40625 0  0.1875 0.40625 0  0.21875 0.40625 0  0.25 0.40625 0  0.28125 0.40625 0  0.3125 0.40625 0  0.34375 0.40625 0  0.375 0.40625 0  0.40625 0.40625 0  0.4375 0.40625 0  0.46875 0.40625 0  0.5 0.40625 0  0.53125 0.40625 0  0.5625 0.40625 0  0.59375 0.40625 0  0.625 0.40625 0  0.65625 0.40625 0  0.6875 0.40625 0  0.71875 0.40625 0  0.75 0.40625 0  0.78125 0.40625 0  0.8125 0.40625 0  0.84375 0.40625 0  0.875 0.40625 0  0.90625 0.40625 0  0.9375 0.40625 0  0.96875 0.40625 0  1 0.40625 0  0 0.4375 0  0.03125 0.4375 0  0.0625 0.4375 0  0.09375 0.4375 0  0.125 0.4375 0  0.15625 0.4375 0  0.1875 0.4375 0  0.21875 0.4375 0  0.25 0.4375 0  0.28125 0.4375 0  0.3125 0.4375 0  0.34375 0.4375 0  0.375 0.4375 0  0.40625 0.4375 0  0.4375 0.4375 0  0.46875 0.4375 0  0.5 0.4375 0  0.53125 0.4375 0  0.5625 0.4375 0  0.59375 0.4375 0  0.625 0.4375 0  0.65625 0.4375 0  0.6875 0.4375 0  0.71875 0.4375 0  0.75 0.4375 0  0.78125 0.4375 0  0.8125 0.4375 0  0.84375 0.4375 0  0.875 0.4375 0  0.90625 0.4375 0  0.9375 0.4375 0  0.96875 0.4375 0  1 0.4375 0  0 0.46875 0  0.03125 0.46875 0  0.0625 0.46875 0  0.09375 0.46875 0  0.125 0.46875 0  0.15625 0.46875 0  0.1875 0.46875 0  0.21875 0.46875 0  0.25 0.46875 0  0.28125 0.46875 0  0.3125 0.46875 0  0.34375 0.46875 0  0.375 0.46875 0  0.40625 0.46875 0  0.4375 0.46875 0  0.46875 0.46875 0  0.5 0.46875 0  0.53125 0.46875 0  0.5625 0.46875 0  0.59375 0.46875 0  0.625 0.46875 0  0.65625 0.46875 0  0.6875 0.46875 0  0.71875 0.46875 0  0.75 0.46875 0  0.78125 0.46875 0  0.8125 0.46875 0  0.84375 0.46875 0  0.875 0.46875 0  0.90625 0.46875 0  0.9375 0.46875 0  0.96875 0.46875 0  1 0.46875 0  0 0.5 0  0.03125 0.5 0  0.0625 0.5 0  0.09375 0.5 0  0.125 0.5 0  0.15625 0.5 0  0.1875 0.5 0  0.21875 0.5 0  0.25 0.5 0  0.28125 0.5 0  0.3125 0.5 0  0.34375 0.5 0  0.375 0.5 0  0.40625 0.5 0  0.4375 0.5 0  0.46875 0.5 0  0.5 0.5 0  0.53125 0.5 0  0.5625 0.5 0  0.59375 0.5 0  0.625 0.5 0  0.65625 0.5 0  0.6875 0.5 0  0.71875 0.5 0  0.75 0.5 0  0.78125 0.5 0  0.8125 0.5 0  0.84375 0.5 0  0.875 0.5 0  0.90625 0.5 0  0.9375 0.5 0  0.96875 0.5 0  1 0.5 0  0 0.53125 0  0.03125 0.53125 0  0.0625 0.53125 0  0.09375 0.53125 0  0.125 0.53125 0  0.15625 0.53125 0  0.1875 0.53125 0  0.21875 0.53125 0  0.25 0.53125 0  0.28125 0.53125 0  0.3125 0.53125 0  0.34375 0.53125 0  0.375 0.53125 0  0.40625 0.53125 0  0.4375 0.53125 0  0.46875 0.53125 0  0.5 0.53125 0  0.53125 0.53125 0  0.5625 0.53125 0  0.59375 0.53125 0  0.625 0.53125 0  0.65625 0.53125 0  0.6875 0.53125 0  0.71875 0.53125 0  0.75 0.53125 0  0.78125 0.531
[...]
<PointData  Scalars="phi"> 
<DataArray  type="Float64"  Name="phi"  format="ascii">0.0000000000000000e+00  0.0000000000000000e+00  0.0000000000000000e+00  0.0000000000000000e+00  0.0000000000000000e+00  0.0000000000000000e+00  0.0000000000000000e+00  0.0000000000000000e+00  0.0000000000000000e+00  0.0000000000000000e+00  0.0000000000000000e+00  0.0000000000000000e+00  0.0000000000000000e+00  0.0000000000000000e+00  0.0000000000000000e+00  0.0000000000000000e+00  0.0000000000000000e+00  0.0000000000000000e+00  0.0000000000000000e+00  0.0000000000000000e+00  0.0000000000000000e+00  0.0000000000000000e+00  0.0000000000000000e+00  0.0000000000000000e+00  0.0000000000000000e+00  0.0000000000000000e+00  0.0000000000000000e+00  0.0000000000000000e+00  0.0000000000000000e+00  0.0000000000000000e+00  0.0000000000000000e+00  0.0000000000000000e+00  0.0000000000000000e+00  0.0000000000000000e+00  2.2155914514506861e-03  4.3328446792562560e-03  6.2759905565431540e-03  7.9730434627482173e-03  9.3602101380088620e-03  1.0384941843526951e-02  1.1008204726138575e-02  1.1206107221002150e-02  1.0970898903533656e-02  1.0311330624458001e-02  9.2523725960197006e-03  7.8343046415913879e-03  6.1112138529056462e-03  4.1489563189516174e-03  2.0226596939800488e-03  -1.8613899149793101e-04  -2.3926115685274033e-03  -4.5118939980414840e-03  -6.4623538141839092e-03  -8.1687438181545328e-03  -9.5651199064883102e-03  -1.0597409527482506e-02  -1.1225530421045829e-02  -1.1424976614997443e-02  -1.1187809643095606e-02  -1.0523017180906296e-02  -9.4562286972632355e-03  -8.0288094782874388e-03  -6.2963956532493537e-03  -4.3270018690698339e-03  -2.1989943399891064e-03  0.0000000000000000e+00  0.0000000000000000e+00  4.3328446792562560e-03  8.4821112834931843e-03  1.2293721599356671e-02  1.5624700885776411e-02  1.8349184810023962e-02  2.0363686032394183e-02  2.1591329132956059e-02  2.1984973319397003e-02  2.1529151149806115e-02  2.0240772240006887e-02  1.8168574624145103e-02  1.5391347350617222e-02  1.2014991434001508e-02  8.1685291938291618e-03  3.9992118503303503e-03  -3.3308993205096176e-04  -4.6619996445248380e-03  -8.8210194085311770e-03  -1.2649940477420582e-02  -1.6001032693000392e-02  -1.8744773164922988e-02  -2.0774891191076852e-02  -2.2012532091306842e-02  -2.2409376366184463e-02  -2.1949591360029067e-02  -2.0650539242643318e-02  -1.8562216610706898e-02  -1.5765456920196607e-02  -1.2368988138606577e-02  -8.5055066944776034e-03  -4.3270018690698348e-03  0.0000000000000000e+00  0.0000000000000000e+00  6.2759905565431531e-03  1.2293721599356669e-02  1.7826170922512076e-02  2.2664100930318440e-02  2.6623856379736532e-02  2.9554580391649786e-02  3.1344172419286442e-02  3.1923743654955053e-02  3.1270404272786073e-02  2.9408281036847370e-02  2.6407727705952407e-02  2.2382756444756180e-02  1.7486784426831166e-02  1.1906853383277429e-02  5.8565383406192590e-03  -4.3218725866951604e-04  -6.7178215967547555e-03  -1.2758601408270568e-02  -1.8321810462981820e-02  -2.3192770794302171e-02  -2.7183168270723916e-02  -3.0138388161707969e-02  -3.1943573292957300e-02  -3.2528165966976927e-02  -3.1868753359089813e-02  -2.9990102547275226e-02  -2.6964343369617644e-02  -2.2908332251979493e-02  -1.7979304388341305e-02  -1.2368988138606577e-02  -6.2963956532493546e-03  0.0000000000000000e+00  0.0000000000000000e+00  7.9730434627482173e-03  1.5624700885776416e-02  2.2664100930318447e-02  2.8823641140300272e-02  3.3868657521608017e-02  3.7606422909075961e-02  3.9893617872076896e-02  4.0641946805365432e-02  3.9821666689013061e-02  3.7462884197663852e-02  3.3654564021944749e-02  2.8541278578135845e-02  2.2317815259525604e-02  1.5221839417535327e-02  7.5248863982632329e-03  -4.7797869644235219e-04  -8.4794419185437071e-03  -1.6171732105867021e-02  -2.3258471189067115e-02  -2.9466126312473855e-02  -3.4554619762478159e-02  -3.8326682917183129e-02  -4.0635587030102456e-02  -4.1390944994645656e-02  -4.0562352047451011e-02  -3.8180716831217723e-02  -3.4337223958344709e-02  -2.9179961090215388e-02  -2.2908332251979500e-02  -1.5765456920196610e-02  -8.0288094782874388e-03  0.0000000000000000e+00  0.0000000000000000e+00  9.3602101380088586e-03  1.8349184810023976e-02  2.6623856379736546e-02  3.3868657521608017e-02  3.9806853423360676e-02  4.4211070961625423e-02  4.6912039202164468e-02  4.7805171288930103e-02  4.6854712691497470e-02  4.4095280513741737e-02  3.9630721169172323e-02  3.3630317340498983e-02  2.6322477132628981e-02  1.7986135498054834e-02  8.9401869446165370e-03  -4.6865410607718207e-04  -9.8791061818256538e-03  -1.8929182104225402e-02  -2.7270127547495689e-02  -3.4579899338264455e-02  -4.0575660596685895e-02  -4.5024804826090933e-02  -4.7754075336732121e-02  -4.8656417986263675e-02  -4.7695291435357813e-02  -4.4906256556533172e-02  -4.0395771246178235e-02  -3.4337223958344723e-02  -2.6964343369617644e-02  -1.8562216610706901e-02  -9.4562286972632373e-03  0.0000000000000000e+00  0.0000000000000000e+00  1.0384941843526953e-02  2.0363686032394194e-02  2.9554580391649821e-02  3.7606422909075982e-02  4.4211070961625437e-02  4.9115148618471410e-02  5.2129758036279242e-02  5.3137799779624371e-02  5.2098600867872734e-02  4.9049654773443932e-02  4.4105389540065626e-02  3.7452994750726998e-02  2.9345451443624351e-02  2.0092017337554481e-02  1.0046518968097291e-02  -4.0611118835360058e-04  -1.0864544191248613e-02  -2.0926450955379216e-02  -3.0203995473884117e-02  -3.8338827386608251e-02  -4.5015991820830270e-02  -4.9976212661810904e-02  -5.3026065118063320e-02  -5.4045632476685111e-02  -5.2993337311535105e-02  -4.9907745372500187e-02  -4.4906256556533186e-02  -3.8180716831217730e-02  -2.9990102547275233e-02  -2.0650539242643321e-02  -1.0523017180906299e-02  0.0000000000000000e+00  0.0000000000000000e+00  1.1008204726138572e-02  2.1591329132956059e-02  3.1344172419286456e-02  3.9893617872076931e-02  4.6912039202164489e-02  5.2129758036279249e-02  5.5345377258401288e-02  5.6433580763585921e-02  5.5350084004674845e-02  5.2133527566907693e-02  4.6904222543449087e-02  3.9859776977587150e-02  3.1267752575076808e-02  2.1455615845617601e-02  1.0798353503264010e-02  -2.9578570695019019e-04  -1.1400885221040583e-02  -2.2089698040260522e-02  -3.1950101483256041e-02  -4.0601034490764937e-02  -4.7707298207557508e-02  -5.2992640325957636e-02  -5.6250606354216325e-02  -5.7352724328856262e-02  -5.6253690402488760e-02  -5.2993337311535105e-02  -4.7695291435357841e-02  -4.0562352047451018e-02  -3.1868753359089827e-02  -2.1949591360029067e-02  -1.1187809643095606e-02  0.0000000000000000e+00  0.0000000000000000e+00  1.1206107221002144e-02  2.1984973319396996e-02  3.1923743654955053e-02  4.0641946805365446e-02  4.7805171288930109e-02  5.3137799779624316e-02  5.6433580763585893e-02  5.7563625037497915e-02  5.6481507280882727e-02  5.3225260233506197e-02  4.7916165885381397e-02  4.0754369742043259e-02  3.2011465933927487e-02  2.2020318050430122e-02  1.1162488609205903e-02  -1.4625518521269487e-04  -1.1471814056183176e-02  -2.2378404875015339e-02  -3.2445347011301501e-02  -4.1283338989576319e-02  -4.8549592347198960e-02  -5.3961229107827538e-02  -5.7306412347098580e-02  -5.8452763710263984e-02  -5.7352724328856290e-02  -5.4045632476685139e-02  -4.8656417986263703e-02  -4.1390944994645677e-02  -3.2528165966976941e-02  -2.2409376366184470e-02  -1.1424976614997447e-02  0.0000000000000000e+00  0.0000000000000000e+00  1.0970898903533638e-02  2.1529151149806098e-02  3.1270404272786066e-02  3.9821666689013054e-02  4.6854712691497442e-02  5.2098600867872706e-02  5.5350084004674824e-02  5.6481507280882727e-02  5.5445881007703590e-02  5.2278917531908387e-02  4.7097934937682343e-02  4.0097648365673533e-02  3.1542988524466506e-02  2.1759201716977702e-02  1.1119591989993235e-02  3.1359653065955842e-05  -1.1079932369234253e-02  -2.1786675301180215e-02  -3.1675689902530973e-02  -4.0364224382718986e-02  -4.7514851778803775e-02  -5.2848681230538021e-02  -5.6156358403223805e-02  -5.7306412347098573e-02  -5.6250606354216352e-02  -5.3026065118063369e-02  -4.7754075336732149e-02  -4.0635587030102470e-02  -3.1943573292957307e-02  -2.2012532091306849e-02  -1.1225530421045833e-02  0.0000000000000000e+00  0.0000000000000000e+00  1.0311330624457989e-02  2.0240772240006873e-02  2.9408281036847346e-02  3.7462884197663832e-02  4.4095280513741716e-02  4.9049654773443911e-02  5.2133527566907659e-02  5.3225260233506148e-02  5.2278917531908359e-02  4.9326286324438064e-02  4.4475953529932027e-02  3.7909456815373707e-02  2.9874632749758503e-02  2.0676395149551344e-02  1.0665276892916289e-02  2.2415757639877550e-04  -1.0246326595738530e-02  -2.0343138482582551e-02  -2.9676373891120929e-02  -3.7884373582629777e-02  -4.4647823829366731e-02  -4.9702289696745547e-02  -5.2848681230538035e-02  -5.3961229107827531e-02  -5.2992640325957657e-02  -4.9976212661810925e-02  -4.5024804826090940e-02  -3.8326682917183129e-02  -3.0138388161707979e-02  -2.0774891191076859e-02  -1.0597409527482513e-02  0.0000000000000000e+00  0.0000000000000000e+00  9.2523725960196902e-03  1.8168574624145083e-02  2.6407727705952386e-02  3.3654564021944736e-02  3.9630721169172309e-02  4.4105389540065598e-02  4.6904222543449059e-02  4.7916165885381362e-02  4.7097934937682315e-02  4.4475953529932021e-02  4.0145660343439742e-02  3.4268187077595158e-02  2.7064512034677426e-02  1.8807289931003054e-02  9.8106498013945352e-03  4.1833418080075780e-04  -9.0093790279727019e-03  -1.8109478379963538e-02  -2.6530216954787685e-02  -3.3944765456896495e-02  -4.0063986401544613e-02  -4.4647823829366724e-02  -4.7514851778803789e-02  -4.8549592347198953e-02  -4.7707298207557515e-02  -4.5015991820830270e-02  -4.0575660596685888e-02  -3.4554619762478152e-02  -2.7183168270723923e-02  -1.8744773164922998e-02  -9.5651199064883154e-03  0.0000000000000000e+00  0.0000000000000000e+00  7.8343046415913810e-03  1.5391347350617203e-02  2.2382756444756156e-02  2.8541278578135824e-02  3.3630317340498962e-02  3.7452994750726970e-02  3.9859776977587129e-02  4.0754369742043224e-02  4.0097648365673498e-02  3.7909456815373707e-02  3.4268187077595158e-02  2.9308132097810337e-02  2.3214689363515905e-02  1.6217574833184995e-02  8.5822851040814850e-03  6.0011632294676215e-04  -7.4228915738844860e-03  -1.5177669776998744e-02  -2.2364047575376134e-02  -2.8702429667908674e-02  -3.3944765456896508e-02  -3.7884373582629777e-02  -4.0364224382718993e-02  -4.1283338989576306e-02  -4.0601034490764937e-02  -3.8338827386608251e-02  -3.4579899338264442e-02  -2.9466126312473844e-02  -2.3192770794302167e-02  -1.6001032693000392e-02  -8.1687438181545346e-03  0.0000000000000000e+00  0.0000000000000000e+00  6.1112138529056366e-03  1.2014991434001492e-02  1.7486784426831138e-02  2.2317815259525572e-02  2.6322477132628950e-02  2.9345451443624302e-02  3.1267752575076760e-02  3.2011465933927424e-02  3.1542988524466437e-02  2.9874632749758469e-02  2.7064512034677406e-02  2.3214689363515888e-02  1.8467634741668786e-02  1.3001102525129895e-02  7.0216019948133200e-03  7.5669194871909795e-04  -5.5536200028906222e-03  -1.1666052573293794e-02  -1.7343450991575707e-02  -2.2364047575376123e-02  -2.6530216954787678e-02  -2.9676373891120916e-02  -3.1675689902530960e-02  -3.2445347011301459e-02  -3.1950101483255999e-02  -3.0203995473884099e-02  -2.7270127547495662e-02  -2.3258471189067098e-02  -1.8321810462981803e-02  -1.2649940477420575e-02  -6.4623538141839049e-03  0.0000000000000000e+00  0.0000000000000000e+00  4.1489563189516044e-03  8.1685291938291375e-03  1.1906853383277396e-02  1.5221839417535285e-02  1.7986135498054792e-02  2.0092017337554422e-02  2.1455615845617535e-02  2.2020318050430050e-02  2.1759201716977636e-02  2.0676395149551288e-02  1.8807289931003012e-02  1.6217574833184964e-02  1.3001102525129881e-02  9.2766454591661288e-03  5.1836417008714938e-03  8.7707364884614914e-04  -3.4783392990531186e-03  -7.7144208360970801e-03  -1.1666052573293791e-02  -1.5177669776998731e-02  -1.8109478379963524e-02  -2.0343138482582519e-02  -2.1786675301180173e-02  -2.2378404875015294e-02  -2.2089698040260484e-02  -2.0926450955379178e-02  -1.8929182104225367e-02  -1.6171732105866990e-02  -1.2758601408270540e-02  -8.8210194085311597e-03  -4.5118939980414770e-03  0.0000000000000000e+00  0.0000000000000000e+00  2.0226596939800327e-03  3.9992118503303191e-03  5.8565383406192157e-03  7.5248863982631774e-03  8.9401869446164763e-03  1.0046518968097218e-02  1.0798353503263922e-02  1.1162488609205811e-02  1.1119591989993152e-02  1.0665276892916215e-02  9.8106498013944745e-03  8.5822851040814382e-03  7.0216019948132870e-03  5.1836417008714782e-03  3.1352678710143212e-03  9.5283850135748332e-04  -1.2805770883536436e-03  -3.4783392990531117e-03  -5.5536200028906101e-03  -7.4228915738844634e-03  -9.0093790279726672e-03  -1.0246326595738483e-02  -1.1079932369234196e-02  -1.1471814056183118e-02  -1.1400885221040526e-02  -1.0864544191248555e-02  -9.8791061818256001e-03  -8.4794419185436655e-03  -6.7178215967547217e-03  -4.6619996445248163e-03  -2.3926115685273916e-03  0.0000000000000000e+00  0.0000000000000000e+00  -1.8613899149795023e-04  -3.3308993205099889e-04  -4.3218725866956851e-04  -4.7797869644242066e-04  -4.6865410607726214e-04  -4.0611118835369366e-04  -2.9578570695029612e-04  -1.4625518521280514e-04  3.1359653065846175e-05  2.2415757639867513e-04  4.1833418080067269e-04  6.0011632294669265e-04  7.5669194871904504e-04  8.7707364884611336e-04  9.5283850135746511e-04  9.7869489378812229e-04  9.5283850135749124e-04  8.7707364884616497e-04  7.5669194871912147e-04  6.0011632294679294e-04  4.1833418080080241e-04  2.2415757639883475e-04  3.1359653066025943e-05  -1.4625518521262093e-04  -2.9578570695011885e-04  -4.0611118835353276e-04  -4.6865410607711870e-04  -4.7797869644230020e-04  -4.3218725866947505e-04  -3.3308993205093443e-04  -1.8613899149791730e-04  0.0000000000000000e+00  0.0000000000000000e+00  -2.3926115685274272e-03  -4.6619996445248831e-03  -6.7178215967548215e-03  -8.4794419185437904e-03  -9.8791061818257527e-03  -1.0864544191248725e-02  -1.1400885221040710e-02  -1.1471814056183312e-02  -1.1079932369234392e-02  -1.0246326595738656e-02  -9.0093790279728130e-03  -7.4228915738845788e-03  -5.5536200028906968e-03  -3.4783392990531750e-03  -1.2805770883536807e-03  9.5283850135747324e-04  3.1352678710143355e-03  5.1836417008715163e-03  7.0216019948133469e-03  8.5822851040815180e-03  9.8106498013945821e-03  1.0665276892916360e-02  1.1119591989993322e-02  1.1162488609205988e-02  1.0798353503264090e-02  1.0046518968097374e-02  8.9401869446166116e-03  7.5248863982632927e-03  5.8565383406193033e-03  3.9992118503303815e-03  2.0226596939800648e-03  0.0000000000000000e+00  0.0000000000000000e+00  -4.5118939980415100e-03  -8.8210194085312291e-03  -1.2758601408270643e-02  -1.6171732105867122e-02  -1.8929182104225530e-02  -2.0926450955379355e-02  -2.2089698040260682e-02  -2.2378404875015502e-02  -2.1786675301180381e-02  -2.0343138482582707e-02  -1.8109478379963684e-02  -1.5177669776998862e-02  -1.1666052573293889e-02  -7.7144208360971547e-03  -3.4783392990531672e-03  8.7707364884612930e-04  5.1836417008714981e-03  9.2766454591661565e-03  1.3001102525129924e-02  1.6217574833185026e-02  1.8807289931003113e-02  2.0676395149551424e-02  2.1759201716977802e-02  2.2020318050430216e-02  2.1455615845617695e-02  2.0092017337554571e-02  1.7986135498054917e-02  1.5221839417535391e-02  1.1906853383277478e-02  8.1685291938291948e-03  4.1489563189516347e-03  0.0000000000000000e+00  0.0000000000000000e+00  -6.4623538141839378e-03  -1.2649940477420641e-02  -1.8321810462981904e-02  -2.3258471189067223e-02  -2.7270127547495832e-02  -3.0203995473884276e-02  -3.1950101483256214e-02  -3.2445347011301681e-02  -3.1675689902531196e-02  -2.9676373891121120e-02  -2.6530216954787848e-02  -2.2364047575376269e-02  -1.7343450991575832e-02  -1.1666052573293884e-02  -5.5536200028906812e-03  7.5669194871906954e-04  7.0216019948133139e-03  1.3001102525129911e-02  1.8467634741668820e-02  2.3214689363515936e-02  2.7064512034677496e-02  2.9874632749758601e-02  3.1542988524466603e-02  3.2011465933927591e-02  3.1267752575076913e-02  2.9345451443624441e-02  2.6322477132629061e-02  2.2317815259525666e-02  1.7486784426831214e-02  1.2014991434001547e-02  6.1112138529056644e-03  0.0000000000000000e+00  0.0000000000000000e+00  -8.1687438181545675e-03  -1.6001032693000461e-02  -2.3192770794302264e-02  -2.9466126312473973e-02  -3.4579899338264594e-02  -3.8338827386608418e-02  -4.0601034490765138e-02  -4.1283338989576521e-02  -4.0364224382719208e-02  -3.7884373582629978e-02  -3.3944765456896675e-02  -2.8702429667908834e-02  -2.2364047575376272e-02  -1.5177669776998847e-02  -7.4228915738845554e-03  6.0011632294672420e-04  8.5822851040814711e-03  1.6217574833184995e-02  2.3214689363515926e-02  2.9308132097810382e-02  3.4268187077595234e-02  3.7909456815373825e-02  4.0097648365673658e-02  4.0754369742043391e-02  3.9859776977587268e-02  3.7452994750727088e-02  3.3630317340499052e-02  2.8541278578135904e-02  2.2382756444756222e-02  1.5391347350617250e-02  7.8343046415914053e-03  0.0000000000000000e+00  0.0000000000000000e+00  -9.5651199064883466e-03  -1.8744773164923061e-02  -2.7183168270724024e-02  -3.4554619762478270e-02  -4.0575660596686026e-02  -4.5015991820830444e-02  -4.7707298207557709e-02  -4.8549592347199154e-02  -4.7514851778803976e-02  -4.4647823829366926e-02  -4.0063986401544807e-02  -3.3944765456896661e-02  -2.6530216954787845e-02  -1.8109478379963653e-02  -9.0093790279727748e-03  4.1833418080071947e-04  9.8106498013945231e-03  1.8807289931003071e-02  2.7064512034677475e-02  3.4268187077595227e-02  4.0145660343439839e-02  4.4475953529932138e-02  4.7097934937682467e-02  4.7916165885381543e-02  4.6904222543449184e-02  4.4105389540065702e-02  3.9630721169172385e-02  3.3654564021944798e-02  2.6407727705952441e-02  1.8168574624145124e-02  9.2523725960197145e-03  0.0000000000000000e+00  0.0000000000000000e+00  -1.0597409527482539e-02  -2.0774891191076918e-02  -3.0138388161708076e-02  -3.8326682917183254e-02  -4.5024804826091093e-02  -4.9976212661811098e-02  -5.2992640325957852e-02  -5.3961229107827746e-02  -5.2848681230538236e-02  -4.9702289696745748e-02  -4.4647823829366919e-02  -3.7884373582629950e-02  -2.9676373891121086e-02  -2.0343138482582655e-02  -1.0246326595738601e-02  2.2415757639873978e-04  1.0665276892916284e-02  2.0676395149551371e-02  2.9874632749758566e-02  3.7909456815373804e-02  4.4475953529932132e-02  4.9326286324438189e-02  5.2278917531908491e-02  5.3225260233506301e-02  5.2133527566907770e-02  4.9049654773444001e-02  4.4095280513741786e-02  3.7462884197663887e-02  2.9408281036847391e-02  2.0240772240006900e-02  1.0311330624458008e-02  0.0000000000000000e+00  0.0000000000000000e+00  -1.1225530421045862e-02  -2.2012532091306908e-02  -3.1943573292957404e-02  -4.0635587030102595e-02  -4.7754075336732309e-02  -5.3026065118063549e-02  -5.6250606354216554e-02  -5.7306412347098795e-02  -5.6156358403224048e-02  -5.2848681230538215e-02  -4.7514851778803956e-02  -4.0364224382719173e-02  -3.1675689902531126e-02  -2.1786675301180308e-02  -1.1079932369234324e-02  3.1359653065922049e-05  1.1119591989993237e-02  2.1759201716977733e-02  3.1542988524466575e-02  4.0097648365673630e-02  4.7097934937682440e-02  5.2278917531908484e-02  5.5445881007703680e-02  5.6481507280882803e-02  5.5350084004674900e-02  5.2098600867872769e-02  4.6854712691497491e-02  3.9821666689013081e-02  3.1270404272786073e-02  2.1529151149806126e-02  1.0970898903533657e-02  0.0000000000000000e+00  0.0000000000000000e+00  -1.1424976614997476e-02  -2.2409376366184529e-02  -3.2528165966977038e-02  -4.1390944994645795e-02  -4.8656417986263856e-02  -5.4045632476685306e-02  -5.7352724328856478e-02  -5.8452763710264193e-02  -5.7306412347098781e-02  -5.3961229107827718e-02  -4.8549592347199140e-02  -4.1283338989576486e-02  -3.2445347011301640e-02  -2.2378404875015440e-02  -1.1471814056183244e-02  -1.4625518521272572e-04  1.1162488609205906e-02  2.2020318050430150e-02  3.2011465933927549e-02  4.0754369742043335e-02  4.7916165885381480e-02  5.322526023