<?xml version="1.0"?>
<VTKFile type="UnstructuredGrid"  version="0.1"  >
<UnstructuredGrid>
<Piece  NumberOfPoints="1089" NumberOfCells="2048">
<Points>
<DataArray  type="Float64"  NumberOfComponents="3"  format="ascii">0 0 0  0.03125 0 0  0.0625 0 0  0.09375 0 0  0.125 0 0  0.15625 0 0  0.1875 0 0  0.21875 0 0  0.25 0 0  0.28125 0 0  0.3125 0 0  0.34375 0 0  0.375 0 0  0.40625 0 0  0.4375 0 0  0.46875 0 0  0.5 0 0  0.53125 0 0  0.5625 0 0  0.59375 0 0  0.625 0 0  0.65625 0 0  0.6875 0 0  0.71875 0 0  0.75 0 0  0.78125 0 0  0.8125 0 0  0.84375 0 0  0.875 0 0  0.90625 0 0  0.9375 0 0  0.96875 0 0  1 0 0  0 0.03125 0  0.03125 0.03125 0  0.0625 0.03125 0  0.09375 0.03125 0  0.125 0.03125 0  0.15625 0.03125 0  0.1875 0.03125 0  0.21875 0.03125 0  0.25 0.03125 0  0.28125 0.03125 0  0.3125 0.03125 0  0.34375 0.03125 0  0.375 0.03125 0  0.40625 0.03125 0  0.4375 0.03125 0  0.46875 0.03125 0  0.5 0.03125 0  0.53125 0.03125 0  0.5625 0.03125 0  0.59375 0.03125 0  0.625 0.03125 0  0.65625 0.03125 0  0.6875 0.03125 0  0.71875 0.03125 0  0.75 0.03125 0  0.78125 0.03125 0  0.8125 0.03125 0  0.84375 0.03125 0  0.875 0.03125 0  0.90625 0.03125 0  0.9375 0.03125 0  0.96875 0.03125 0  1 0.03125 0  0 0.0625 0  0.03125 0.0625 0  0.0625 0.0625 0  0.09375 0.0625 0  0.125 0.0625 0  0.15625 0.0625 0  0.1875 0.0625 0  0.21875 0.0625 0  0.25 0.0625 0  0.28125 0.0625 0  0.3125 0.0625 0  0.34375 0.0625 0  0.375 0.0625 0  0.40625 0.0625 0  0.4375 0.0625 0  0.46875 0.0625 0  0.5 0.0625 0  0.53125 0.0625 0  0.5625 0.0625 0  0.59375 0.0625 0  0.625 0.0625 0  0.65625 0.0625 0  0.6875 0.0625 0  0.71875 0.0625 0  0.75 0.0625 0  0.78125 0.0625 0  0.8125 0.0625 0  0.84375 0.0625 0  0.875 0.0625 0  0.90625 0.0625 0  0.9375 0.0625 0  0.96875 0.0625 0  1 0.0625 0  0 0.09375 0  0.03125 0.09375 0  0.0625 0.09375 0  0.09375 0.09375 0  0.125 0.09375 0  0.15625 0.09375 0  0.1875 0.09375 0  0.21875 0.09375 0  0.25 0.09375 0  0.28125 0.09375 0  0.3125 0.09375 0  0.34375 0.09375 0  0.375 0.09375 0  0.40625 0.09375 0  0.4375 0.09375 0  0.46875 0.09375 0  0.5 0.09375 0  0.53125 0.09375 0  0.5625 0.09375 0  0.59375 0.09375 0  0.625 0.09375 0  0.65625 0.09375 0  0.6875 0.09375 0  0.71875 0.09375 0  0.75 0.09375 0  0.78125 0.09375 0  0.8125 0.09375 0  0.84375 0.09375 0  0.875 0.09375 0  0.90625 0.09375 0  0.9375 0.09375 0  0.96875 0.09375 0  1 0.09375 0  0 0.125 0  0.03125 0.125 0  0.0625 0.125 0  0.09375 0.125 0  0.125 0.125 0  0.15625 0.125 0  0.1875 0.125 0  0.21875 0.125 0  0.25 0.125 0  0.28125 0.125 0  0.3125 0.125 0  0.34375 0.125 0  0.375 0.125 0  0.40625 0.125 0  0.4375 0.125 0  0.46875 0.125 0  0.5 0.125 0  0.53125 0.125 0  0.5625 0.125 0  0.59375 0.125 0  0.625 0.125 0  0.65625 0.125 0  0.6875 0.125 0  0.71875 0.125 0  0.75 0.125 0  0.78125 0.125 0  0.8125 0.125 0  0.84375 0.125 0  0.875 0.125 0  0.90625 0.125 0  0.9375 0.125 0  0.96875 0.125 0  1 0.125 0  0 0.15625 0  0.03125 0.15625 0  0.0625 0.15625 0  0.09375 0.15625 0  0.125 0.15625 0  0.15625 0.15625 0  0.1875 0.15625 0  0.21875 0.15625 0  0.25 0.15625 0  0.28125 0.15625 0  0.3125 0.15625 0  0.34375 0.15625 0  0.375 0.15625 0  0.40625 0.15625 0  0.4375 0.15625 0  0.46875 0.15625 0  0.5 0.15625 0  0.53125 0.15625 0  0.5625 0.15625 0  0.59375 0.15625 0  0.625 0.15625 0  0.65625 0.15625 0  0.6875 0.15625 0  0.71875 0.15625 0  0.75 0.15625 0  0.78125 0.15625 0  0.8125 0.15625 0  0.84375 0.15625 0  0.875 0.15625 0  0.90625 0.15625 0  0.9375 0.15625 0  0.96875 0.15625 0  1 0.15625 0  0 0.1875 0  0.03125 0.1875 0  0.0625 0.1875 0  0.09375 0.1875 0  0.125 0.1875 0  0.15625 0.1875 0  0.1875 0.1875 0  0.21875 0.1875 0  0.25 0.1875 0  0.28125 0.1875 0  0.3125 0.1875 0  0.34375 0.1875 0  0.375 0.1875 0  0.40625 0.1875 0  0.4375 0.1875 0  0.46875 0.1875 0  0.5 0.1875 0  0.53125 0.1875 0  0.5625 0.1875 0  0.59375 0.1875 0  0.625 0.1875 0  0.65625 0.1875 0  0.6875 0.1875 0  0.71875 0.1875 0  0.75 0.1875 0  0.78125 0.1875 0  0.8125 0.1875 0  0.84375 0.1875 0  0.875 0.1875 0  0.90625 0.1875 0  0.9375 0.1875 0  0.96875 0.1875 0  1 0.1875 0  0 0.21875 0  0.03125 0.21875 0  0.0625 0.21875 0  0.09375 0.21875 0  0.125 0.21875 0  0.15625 0.21875 0  0.1875 0.21875 0  0.21875 0.21875 0  0.25 0.21875 0  0.28125 0.21875 0  0.3125 0.21875 0  0.34375 0.21875 0  0.375 0.21875 0  0.40625 0.21875 0  0.4375 0.21875 0  0.46875 0.21875 0  0.5 0.21875 0  0.53125 0.21875 0  0.5625 0.21875 0  0.59375 0.21875 0  0.625 0.21875 0  0.65625 0.21875 0  0.6875 0.21875 0  0.71875 0.21875 0  0.75 0.21875 0  0.78125 0.21875 0  0.8125 0.21875 0  0.84375 0.21875 0  0.875 0.21875 0  0.90625 0.21875 0  0.9375 0.21875 0  0.96875 0.21875 0  1 0.21875 0  0 0.25 0  0.03125 0.25 0  0.0625 0.25 0  0.09375 0.25 0  0.125 0.25 0  0.15625 0.25 0  0.1875 0.25 0  0.21875 0.25 0  0.25 0.25 0  0.28125 0.25 0  0.3125 0.25 0  0.34375 0.25 0  0.375 0.25 0  0.40625 0.25 0  0.4375 0.25 0  0.46875 0.25 0  0.5 0.25 0  0.53125 0.25 0  0.5625 0.25 0  0.59375 0.25 0  0.625 0.25 0  0.65625 0.25 0  0.6875 0.25 0  0.71875 0.25 0  0.75 0.25 0  0.78125 0.25 0  0.8125 0.25 0  0.84375 0.25 0  0.875 0.25 0  0.90625 0.25 0  0.9375 0.25 0  0.96875 0.25 0  1 0.25 0  0 0.28125 0  0.03125 0.28125 0  0.0625 0.28125 0  0.09375 0.28125 0  0.125 0.28125 0  0.15625 0.28125 0  0.1875 0.28125 0  0.21875 0.28125 0  0.25 0.28125 0  0.28125 0.28125 0  0.3125 0.28125 0  0.34375 0.28125 0  0.375 0.28125 0  0.40625 0.28125 0  0.4375 0.28125 0  0.46875 0.28125 0  0.5 0.28125 0  0.53125 0.28125 0  0.5625 0.28125 0  0.59375 0.28125 0  0.625 0.28125 0  0.65625 0.28125 0  0.6875 0.28125 0  0.71875 0.28125 0  0.75 0.28125 0  0.78125 0.28125 0  0.8125 0.28125 0  0.84375 0.28125 0  0.875 0.28125 0  0.90625 0.28125 0  0.9375 0.28125 0  0.96875 0.28125 0  1 0.28125 0  0 0.3125 0  0.03125 0.3125 0  0.0625 0.3125 0  0.09375 0.3125 0  0.125 0.3125 0  0.15625 0.3125 0  0.1875 0.3125 0  0.21875 0.3125 0  0.25 0.3125 0  0.28125 0.3125 0  0.3125 0.3125 0  0.34375 0.3125 0  0.375 0.3125 0  0.40625 0.3125 0  0.4375 0.3125 0  0.46875 0.3125 0  0.5 0.3125 0  0.53125 0.3125 0  0.5625 0.3125 0  0.59375 0.3125 0  0.625 0.3125 0  0.65625 0.3125 0  0.6875 0.3125 0  0.71875 0.3125 0  0.75 0.3125 0  0.78125 0.3125 0  0.8125 0.3125 0  0.84375 0.3125 0  0.875 0.3125 0  0.90625 0.3125 0  0.9375 0.3125 0  0.96875 0.3125 0  1 0.3125 0  0 0.34375 0  0.03125 0.34375 0  0.0625 0.34375 0  0.09375 0.34375 0  0.125 0.34375 0  0.15625 0.34375 0  0.1875 0.34375 0  0.21875 0.34375 0  0.25 0.34375 0  0.28125 0.34375 0  0.3125 0.34375 0  0.34375 0.34375 0  0.375 0.34375 0  0.40625 0.34375 0  0.4375 0.34375 0  0.46875 0.34375 0  0.5 0.34375 0  0.53125 0.34375 0  0.5625 0.34375 0  0.59375 0.34375 0  0.625 0.34375 0  0.65625 0.34375 0  0.6875 0.34375 0  0.71875 0.34375 0  0.75 0.34375 0  0.78125 0.34375 0  0.8125 0.34375 0  0.84375 0.34375 0  0.875 0.34375 0  0.90625 0.34375 0  0.9375 0.34375 0  0.96875 0.34375 0  1 0.34375 0  0 0.375 0  0.03125 0.375 0  0.0625 0.375 0  0.09375 0.375 0  0.125 0.375 0  0.15625 0.375 0  0.1875 0.375 0  0.21875 0.375 0  0.25 0.375 0  0.28125 0.375 0  0.3125 0.375 0  0.34375 0.375 0  0.375 0.375 0  0.40625 0.375 0  0.4375 0.375 0  0.46875 0.375 0  0.5 0.375 0  0.53125 0.375 0  0.5625 0.375 0  0.59375 0.375 0  0.625 0.375 0  0.65625 0.375 0  0.6875 0.375 0  0.71875 0.375 0  0.75 0.375 0  0.78125 0.375 0  0.8125 0.375 0  0.84375 0.375 0  0.875 0.375 0  0.90625 0.375 0  0.9375 0.375 0  0.96875 0.375 0  1 0.375 0  0 0.40625 0  0.03125 0.40625 0  0.0625 0.40625 0  0.09375 0.40625 0  0.125 0.40625 0  0.15625 0.40625 0  0.1875 0.40625 0  0.21875 0.40625 0  0.25 0.40625 0  0.28125 0.40625 0  0.3125 0.40625 0  0.34375 0.40625 0  0.375 0.40625 0  0.40625 0.40625 0  0.4375 0.40625 0  0.46875 0.40625 0  0.5 0.40625 0  0.53125 0.40625 0  0.5625 0.40625 0  0.59375 0.40625 0  0.625 0.40625 0  0.65625 0.40625 0  0.6875 0.40625 0  0.71875 0.40625 0  0.75 0.40625 0  0.78125 0.40625 0  0.8125 0.40625 0  0.84375 0.40625 0  0.875 0.40625 0  0.90625 0.40625 0  0.9375 0.40625 0  0.96875 0.40625 0  1 0.40625 0  0 0.4375 0  0.03125 0.4375 0  0.0625 0.4375 0  0.09375 0.4375 0  0.125 0.4375 0  0.15625 0.4375 0  0.1875 0.4375 0  0.21875 0.4375 0  0.25 0.4375 0  0.28125 0.4375 0  0.3125 0.4375 0  0.34375 0.4375 0  0.375 0.4375 0  0.40625 0.4375 0  0.4375 0.4375 0  0.46875 0.4375 0  0.5 0.4375 0  0.53125 0.4375 0  0.5625 0.4375 0  0.59375 0.4375 0  0.625 0.4375 0  0.65625 0.4375 0  0.6875 0.4375 0  0.71875 0.4375 0  0.75 0.4375 0  0.78125 0.4375 0  0.8125 0.4375 0  0.84375 0.4375 0  0.875 0.4375 0  0.90625 0.4375 0  0.9375 0.4375 0  0.96875 0.4375 0  1 0.4375 0  0 0.46875 0  0.03125 0.46875 0  0.0625 0.46875 0  0.09375 0.46875 0  0.125 0.46875 0  0.15625 0.46875 0  0.1875 0.46875 0  0.21875 0.46875 0  0.25 0.46875 0  0.28125 0.46875 0  0.3125 0.46875 0  0.34375 0.46875 0  0.375 0.46875 0  0.40625 0.46875 0  0.4375 0.46875 0  0.46875 0.46875 0  0.5 0.46875 0  0.53125 0.46875 0  0.5625 0.46875 0  0.59375 0.46875 0  0.625 0.46875 0  0.65625 0.46875 0  0.6875 0.46875 0  0.71875 0.46875 0  0.75 0.46875 0  0.78125 0.46875 0  0.8125 0.46875 0  0.84375 0.46875 0  0.875 0.46875 0  0.90625 0.46875 0  0.9375 0.46875 0  0.96875 0.46875 0  1 0.46875 0  0 0.5 0  0.03125 0.5 0  0.0625 0.5 0  0.09375 0.5 0  0.125 0.5 0  0.15625 0.5 0  0.1875 0.5 0  0.21875 0.5 0  0.25 0.5 0  0.28125 0.5 0  0.3125 0.5 0  0.34375 0.5 0  0.375 0.5 0  0.40625 0.5 0  0.4375 0.5 0  0.46875 0.5 0  0.5 0.5 0  0.53125 0.5 0  0.5625 0.5 0  0.59375 0.5 0  0.625 0.5 0  0.65625 0.5 0  0.6875 0.5 0  0.71875 0.5 0  0.75 0.5 0  0.78125 0.5 0  0.8125 0.5 0  0.84375 0.5 0  0.875 0.5 0  0.90625 0.5 0  0.9375 0.5 0  0.96875 0.5 0  1 0.5 0  0 0.53125 0  0.03125 0.53125 0  0.0625 0.53125 0  0.09375 0.53125 0  0.125 0.53125 0  0.15625 0.53125 0  0.1875 0.53125 0  0.21875 0.53125 0  0.25 0.53125 0  0.28125 0.53125 0  0.3125 0.53125 0  0.34375 0.53125 0  0.375 0.53125 0  0.40625 0.53125 0  0.4375 0.53125 0  0.46875 0.53125 0  0.5 0.53125 0  0.53125 0.53125 0  0.5625 0.53125 0  0.59375 0.53125 0  0.625 0.53125 0  0.65625 0.53125 0  0.6875 0.53125 0  0.71875 0.53125 0  0.75 0.53125 0  0.78125 0.531
[...]
<PointData  Scalars="theta_dt"> 
<DataArray  type="Float64"  Name="theta_dt"  format="ascii">8.5423166635752320e-04  -1.9208584616285729e-03  -3.5045214769778679e-04  1.9894924233370493e-03  1.8890208049341874e-03  -9.0535682017073834e-15  -2.6266587910776938e-03  -5.9240732008377219e-04  8.0339261687753267e-04  5.1961915935549649e-03  3.3327037871986901e-03  2.0534623986917418e-03  -3.7493844963232439e-03  -3.8374590354411263e-03  -3.4661232794955484e-03  -8.8373521267090071e-04  1.2898960534487580e-03  6.3248371465212672e-03  8.1675766766587648e-03  6.0983007246248749e-03  2.9756019312019680e-03  -8.8914122361138158e-15  -1.2986208678889168e-14  -3.2608413526817957e-03  -6.9287100744323633e-03  -6.7039315839319382e-03  -7.6739985393094422e-03  -6.2106227051465261e-03  -1.0204930286332792e-02  -4.9543264045200678e-03  -4.0185235097914152e-03  -4.7892153386280686e-03  -5.7913448362028053e-03  2.2776520577009510e-03  9.2116526611773705e-04  -2.0978058283431904e-03  -3.8525604552686982e-04  2.0495454336253455e-03  1.7302668413846901e-03  -9.4285225117969746e-15  -2.8565818595692768e-03  -5.3938282676501022e-04  8.8373521266983993e-04  4.7310970258570154e-03  3.6244300988647156e-03  2.1385067215313460e-03  -3.4342849229847278e-03  -3.9532930864950733e-03  -3.8103488785539361e-03  -9.6514392751317901e-04  1.3909662778083458e-03  6.8204218160980174e-03  8.9199648480127181e-03  6.7039315839166752e-03  3.0654207469422256e-03  -8.1441748682941813e-15  -1.3524033634463492e-14  -3.5462772274210568e-03  -6.3085432929053829e-03  -7.3743525638514384e-03  -6.9871233598834646e-03  -6.7542659961827740e-03  -1.0627568356734989e-02  -4.5379630953489508e-03  -4.1398230085210900e-03  -5.2648390790504783e-03  4.3602302930776196e-04  2.3719812146579117e-03  9.7728799968147526e-04  -2.2621800856072608e-03  -4.2378324890422720e-04  2.1802039771543404e-03  1.6118117265406053e-03  -9.6254489847972679e-15  -3.1402730391895980e-03  -4.9405290694845181e-04  9.6514392751202054e-04  4.3334939910835589e-03  3.9843773717754844e-03  2.1831721063391642e-03  -3.1991716992729974e-03  -4.2053155634552541e-03  -4.1913995794766656e-03  -1.0407680935320151e-03  1.4757120152747475e-03  7.2359614922631954e-03  9.6188915918056384e-03  7.3743525638346472e-03  3.2608413526667673e-03  -7.5866197292486544e-15  -1.3806499974342298e-14  -3.8984630282716823e-03  -5.7783711267988163e-03  -8.0536698032342771e-03  -6.3999230896199400e-03  -7.4250416931955134e-03  -1.0849538400338615e-02  -4.2272913961862958e-03  -4.4037367700249805e-03  -7.6525644041628912e-04  3.9817343158303362e-04  2.4215230059662627e-03  1.0177624667109830e-03  -2.4000052239266895e-03  -4.6282169522878923e-04  2.3710468799583275e-03  1.5437850247216384e-03  -2.2719417492213204e-03  -3.4543133753401497e-03  -4.6022974601635068e-04  1.0407680935307659e-03  4.0368203705111651e-03  4.3828316442440750e-03  -1.6909687225745997e-03  -3.0641502847550545e-03  -4.5734254457168652e-03  -4.5775066942134509e-03  -1.1041777254009082e-03  1.5368287560172447e-03  7.5356394632818211e-03  1.0204930286317580e-02  8.0536698032159411e-03  3.5462772274047162e-03  -7.2664255591496695e-15  -4.4121816619657759e-03  -4.2883255098426715e-03  -5.3827803433050287e-03  -8.6847177173313816e-03  -5.9617804826868114e-03  -8.1675766766709373e-03  -5.9586114500323230e-03  -4.0488780700049243e-03  -3.5744067383583057e-15  -7.3295870313715063e-04  3.6253419528916480e-04  1.9763370248215982e-03  1.0390197074579505e-03  -2.4994016478448460e-03  -4.9908623953078218e-04  2.6065188948971494e-03  1.5322112221325254e-03  -2.0747226220606181e-03  -3.7725209204475035e-03  -4.4080569593348635e-04  1.1041777253995829e-03  3.8664458961729696e-03  4.7865732700299521e-03  -1.5441817833247214e-03  -3.0411782582544550e-03  -5.0276187870540731e-03  -4.9361787184860218e-03  -1.1499073413953969e-03  1.5689273447568100e-03  7.6930307087764533e-03  1.0627568356719149e-02  8.6847177173116057e-03  3.8984630282537162e-03  -7.2119489489977721e-15  -4.0291759724292459e-03  -4.6833613345740937e-03  -5.1555994714069702e-03  -9.2138411183691326e-03  -5.7101628424079953e-03  -8.9199648480260147e-03  -5.4413657285397234e-03  1.3641587701087340e-03  -3.9293861206752520e-15  -7.2746368977697656e-04  3.3206669579204453e-04  1.8047782851909344e-03  -8.0476927236063458e-04  -2.5516047741040628e-03  -5.2949346945659428e-04  2.8671816015220161e-03  1.5784611576473487e-03  -1.8890208049456962e-03  -4.0681180228740324e-03  -4.3750096242254206e-04  1.1499073413940169e-03  3.8374590354331712e-03  5.1616267737770683e-03  -1.4059669877322608e-03  -3.1329765014089387e-03  -5.5304015305351114e-03  -5.2369193708210124e-03  -1.1739245929567957e-03  5.9586114500257501e-03  8.4034740256402098e-03  1.0849538400322442e-02  9.2138411183481529e-03  4.2883255098229104e-03  -7.4296422859275949e-15  -3.6685372578367623e-03  -5.0503276335846564e-03  -5.1169477876847743e-03  -9.5954331451637946e-03  -5.6673535804761775e-03  -9.6188915918199742e-03  1.8418670748796535e-04  1.3926509304523942e-03  -4.3223410398184040e-15  -7.4942224761519237e-04  3.0933320888405791e-04  1.6432383263136191e-03  -7.3491013379992326e-04  -1.8755826222599053e-03  -5.5142248728843669e-04  3.1313032140284250e-03  1.6790880734949699e-03  -1.7302668413952326e-03  -4.3159713802480362e-03  -4.5070696888394496e-04  1.1739245929553866e-03  3.9532930864868776e-03  5.4761030299227487e-03  -1.2878090345010268e-03  -3.3327037872103484e-03  -6.0398560308281678e-03  -5.4538068394889699e-03  1.2152074773419553e-03  5.4413657285337282e-03  7.6739985392979973e-03  7.5873398780810525e-03  9.5954331451419458e-03  4.6833613345525138e-03  -7.9032820618966651e-15  -3.3602321144580597e-03  -5.3580229002373053e-03  -5.2714033234455403e-03  -9.7958457552862130e-03  -5.8384231653026870e-03  -6.1204694194739756e-04  1.8280585422286182e-04  9.0981711837645690e-04  -4.7205103377217664e-15  -7.9719792399452730e-04  2.9627776474194122e-04  1.5051400075035103e-03  -6.6913066727669710e-04  -1.7127700115023186e-03  -5.6293963490291110e-04  3.3766574947346759e-03  1.8260660835193261e-03  -1.6118117265504263e-03  -4.4947177082363919e-03  -4.7943954301799511e-04  4.3124563002656284e-03  4.2053155634465397e-03  5.7028963105186792e-03  -1.1996448488214419e-03  -3.6244300988773938e-03  -6.5131109124934522e-03  -5.5677164095177464e-03  1.1097196680340457e-03  4.9543264045146113e-03  6.9871233598730433e-03  6.9287100744165886e-03  9.7958457552639079e-03  5.0503276335613851e-03  -8.5950913174414917e-15  -3.1301885908230731e-03  -5.5799258820499169e-03  -5.6074553422470952e-03  -8.4034740256527310e-03  -1.9177571278291652e-04  -6.4933639337904096e-04  1.8832386560889793e-04  8.3083915249173798e-04  -5.0903874589438027e-15  -8.6698018635100781e-04  2.9405656146184978e-04  1.4020972119179616e-03  -6.1289669394764418e-04  -1.5594654202986890e-03  6.4872041627603652e-04  3.5823830641666119e-03  2.0074152857355631e-03  -1.5437850247310451e-03  -4.5885955034378643e-03  -5.2140700802005239e-04  3.9381074122501001e-03  4.5734254457073841e-03  5.8220084253714213e-03  -1.1490136981258279e-03  -3.9843773717894220e-03  -6.9099274250759230e-03  -9.0925940449959684e-04  1.0103921932907408e-03  4.5379630953439488e-03  6.3999230896103999e-03  6.3085432928910159e-03  4.4121816619454501e-03  5.3580229002126133e-03  -9.4486819774189552e-15  -2.9980786164391076e-03  -5.6964696058603307e-03  -6.0983007246387605e-03  6.7622871626506383e-04  -1.9033796451771592e-04  -6.7622871626998545e-04  2.0032951407538958e-04  7.5647338489110393e-04  -5.4005234026257904e-15  -9.5308121333521315e-04  3.0293268559465234e-04  1.3429215356365529e-03  -5.7093741545217959e-04  -1.4284074055620954e-03  5.9240732008281917e-04  3.7307477685986079e-03  2.2081651451455065e-03  -1.5322112221418599e-03  -2.9499920317967530e-03  -5.7318867451492251e-04  3.5856199545665993e-03  5.0276187870436501e-03  1.6909687225567271e-03  -1.1403995080013351e-03  -4.3828316442594065e-03  -7.1961026670042810e-03  -8.3032985175928928e-04  9.2547848296770248e-04  4.2272913961816381e-03  5.9617804826779227e-03  5.7783711267856601e-03  4.0291759724106792e-03  5.5799258820242049e-03  -1.0393589387487364e-14  -2.9756019312156797e-03  -7.5873398780983269e-03  1.2159107126796819e-04  6.9035259790918948e-04  -1.9608333334011303e-04  -6.9035259791421389e-04  2.1786524301821994e-04  6.9289909928372498e-04  -5.6241865464205636e-15  -1.0483932899856576e-03  3.2224464757302717e-04  1.3328536126438865e-03  -5.4684093527479786e-04  -1.3306177703318490e-03  5.3938282676414210e-04  3.8086690970787172e-03  2.4115788872351874e-03  -1.5784611576569662e-03  -2.6939137877830658e-03  -6.3050992071738852e-04  3.2842832101100234e-03  5.5304015305236457e-03  1.5441817833084009e-03  -1.1748225711823957e-03  -4.7865732700466974e-03  -7.3464022622789461e-03  -7.5600967004588128e-04  8.6211966607103389e-04  4.0488780700004652e-03  5.7101628423994848e-03  5.3827803432927694e-03  3.6685372578198557e-03  5.6964696058340808e-03  -1.1351035399032437e-14  -3.0654207469563511e-03  -5.0977706168179376e-05  1.3366645231253937e-04  2.8223051873741903e-04  -2.0858364795827298e-04  -1.5128030340146045e-04  2.3950174805414650e-04  6.4546280771419400e-04  -5.7416547095072543e-15  -1.1449701256297340e-03  3.5045214769700763e-04  1.3730859205300556e-03  -5.4274125239721707e-04  -1.2744588922154459e-03  4.9405290694765731e-04  3.5540814460868638e-03  2.6005389344746751e-03  -1.6790880735052011e-03  -2.4527901405914255e-03  -6.8859180045349017e-04  3.0594391944189260e-03  6.0398560308156483e-03  1.4059669877174016e-03  -1.2497175227835229e-03  -5.1616267737951242e-03  -4.3124563002719680e-03  -6.9247435519490886e-04  8.2573380506110485e-04  4.0185235097869839e-03  5.6673535804677294e-03  5.1555994713952304e-03  3.3602321144425729e-03  -1.0693778816980787e-14  -1.2240449465713587e-14  -2.0663970652191202e-04  -4.8826186136518711e-05  1.4703365226376213e-04  2.5773109810632978e-04  -2.2684189776926456e-04  -1.3814820201564460e-04  2.6345291679932635e-04  6.1822097466844041e-04  -9.0981711838427693e-04  -1.2346846318281354e-03  3.8525604552601324e-04  1.4606201627933686e-03  -5.5912394661196743e-04  -1.2649042357119589e-03  4.6022974601561044e-04  3.2455643633335133e-03  2.7589788573744540e-03  -1.8260660835304528e-03  -2.2466568065609509e-03  -7.4254663470383904e-04  2.9303152065579584e-03  6.5131109124799500e-03  1.2878090344874162e-03  -1.3591108282871261e-03  -5.4761030299419061e-03  -3.9381074122558863e-03  -6.4506714186268516e-04  8.1954325398184472e-04  4.1398230085165260e-03  5.8384231652939822e-03  5.1169477876731231e-03  3.1301885908086497e-03  -9.7654901735516995e-15  2.5093714730085284e-04  -1.8870205359970880e-04  -4.8460134756000026e-05  1.6057823043348678e-04  2.3466240799013772e-04  -2.4936988706874804e-04  -1.2578299624178344e-04  2.8772190944618785e-04  6.1358615349665685e-04  -8.3083915249887918e-04  -1.3099087845139742e-03  4.2378324890328514e-04  1.5884747097451391e-03  -5.9476810424709801e-04  -1.3030854854568096e-03  4.4080569593277696e-04  2.9550642292790375e-03  2.8732422053683996e-03  -2.0074152857477933e-03  -2.0928493222636467e-03  -7.8778688471214443e-04  2.9083465456489076e-03  6.9099274250615976e-03  1.1996448488087624e-03  -1.4940860444952360e-03  -5.7028963105386294e-03  -3.5856199545718712e-03  -6.1784200794032056e-04  8.4428124186546993e-04  4.4037367700201268e-03  6.2106227051372687e-03  5.2714033234335395e-03  2.9980786164252931e-03  7.6272406937804733e-05  2.6132973095911683e-04  -1.7181193350646021e-04  -4.9922908344347263e-05  1.7316038985151530e-04  2.1494129784291460e-04  -2.7430791066847433e-04  -1.1521214961671915e-04  3.1026645314266978e-04  6.3210730751386357e-04  -7.5647338489760589e-04  -1.3641587701146915e-03  4.6282169522776032e-04  1.7462283770153634e-03  -6.4683078861018761e-04  -1.3861571992281880e-03  4.3750096242183836e-04  2.7067196066491500e-03  2.9332534587615828e-03  -2.2081651451589610e-03  -2.0045203726392251e-03  -8.2041314667581590e-04  2.9961352514409271e-03  7.1961026669893624e-03  1.1490136981136842e-03  -1.6435008494486987e-03  -5.8220084253917878e-03  -3.2842832101148511e-03  -6.1321002789345327e-04  8.9810418015275040e-04  4.7892153386227916e-03  6.7542659961727074e-03  5.6074553422343259e-03  -2.5253666406118822e-05  8.2248756164580539e-05  2.6678792890513688e-04  -1.5737279903107080e-04  -5.3105494290473854e-05  1.8371032565661484e-04  2.0022628654422757e-04  -2.9957685339974802e-04  -1.0732465614585045e-04  3.2916968595438810e-04  6.7240415519472093e-04  -6.9289909928968061e-04  -1.3926509304584762e-03  4.9908623952967261e-04  1.9208584616194257e-03  -7.1106846792641650e-04  -1.5074936734367317e-03  4.5070696888322001e-04  2.5214159447008158e-03  -7.4553596240061999e-15  -2.4115788872498809e-03  -1.9894924233410595e-03  -8.3754850029837925e-04  3.1871389060789683e-03  7.3464022622637161e-03  1.1403995079892826e-03  -1.7948983382863823e-03  -5.6901315351011493e-03  -3.0594391944234250e-03  -6.3171982852501562e-04  9.7671921368023542e-04  5.2648390790446765e-03  7.4250416931844459e-03  -4.5605400326674725e-05  -2.7580006352406943e-05  8.7259827682320128e-05  -2.0204859355725877e-15  -1.4659896199236181e-04  -5.7754053228735570e-05  1.9131870468223704e-04  1.9177571277883074e-04  -3.2305029508142264e-04  -1.0279500652161884e-04  3.4280227696708519e-04  7.3126266668239971e-04  -6.4546280771974121e-04  -2.7106200908236466e-04  5.2949346945541716e-04  2.0978058283331992e-03  -7.8217826567549898e-04  -1.6572049995990858e-03  4.7943954301722392e-04  2.4149992908153858e-03  -6.8081865535612452e-15  -2.6005389344905196e-03  -2.0495454336294781e-03  9.0925940449850559e-04  3.4661232794904536e-03  4.5094173387333382e-03  1.1748225711699792e-03  -1.9355381807513797e-03  -5.1961915935657410e-03  -2.9303152065622653e-03  -6.7199197441614894e-04  1.0737185784835117e-03  5.7913448361964250e-03  4.9806519593387187e-05  -4.9806519595467296e-05  -2.9741046710987561e-05  9.0873700992623454e-05  -1.8450947871020470e-15  -1.4041173571139375e-04  -6.3489689837022861e-05  1.9531463487012360e-04  1.9033796451366070e-04  -3.4273239372909815e-04  -1.0202434927752332e-04  3.4996213083126514e-04  8.0388539507664691e-04  -6.1822097467375409e-04  -2.4753208677869118e-04  5.5142248728721078e-04  2.2621800855964877e-03  -8.5423166636975961e-04  -1.8229323770117122e-03  5.2140700801921332e-04  2.3968939687678483e-03  -6.1988074487062593e-15  -2.7589788573912644e-03  -2.1802039771587380e-03  8.3032985175829300e-04  3.8103488785483355e-03  4.1179709683089481e-03  1.2497175227703147e-03  -2.0534623987134449e-03  -4.7310970258668244e-03  -2.9083465456531811e-03  -7.3081440589613700e-04  1.1810948922976346e-03  3.1553043864340993e-05  5.3709125618434461e-05  -5.3709125620677553e-05  -3.1553043864877308e-05  9.2771711778785295e-05  -1.6799462264844281e-15  -1.3935906472139524e-04  -6.9838922304928967e-05  5.3471031771183013e-04  1.9608333333593554e-04  -3.5692668545728265e-04  -1.0510396356755566e-04  1.0786731646106301e-03  8.8427727073391060e-04  -6.1358615350193084e-04  -2.2537627769834441e-04  5.6293963490165950e-04  2.4000052239152594e-03  -9.2116526613093288e-04  -1.9908589006232217e-03  5.7318867451400029e-04  2.4692444318698595e-03  -5.6778575210020198e-15  -2.8732422053859060e-03  -2.3710468799631084e-03  7.5600967004497369e-04  4.1913995794705056e-03  3.7493844963101268e-03  1.3591108282727611e-03  -2.1385067215539486e-03  -4.3334939910925421e-03  -2.9961352514453320e-03  -8.0339261687849674e-04  2.5983047125700286e-05  3.2859815904910540e-05  5.6981397226903316e-05  -5.6981397229283065e-05  -3.2859815905469060e-05  2.0663970651894602e-04  -1.5387629630138524e-15  -1.4356563080293076e-04  -7.6272406938443545e-05  4.8829402989147028e-04  2.0858364795382889e-04  -3.6438154524033378e-04  -1.1180434238012493e-04  9.8503741004557954e-04  9.6573591936817394e-04  -6.3210730751929673e-04  -2.0643557716122619e-04  1.8755826222545018e-03  2.4994016478329427e-03  -9.7728799969547470e-04  -2.1468532966183755e-03  6.3050992071637436e-04  2.6266587910697505e-03  -5.2891479597759603e-15  -2.9332534587794552e-03  -2.6065188949024056e-03  6.9247435519407803e-04  4.5775066942067228e-03  3.4342849229727110e-03  1.4940860444794448e-03  -2.1831721063622386e-03  -4.0368203705195326e-03  -3.1871389060836534e-03  -3.7138485158545790e-06  2.3727551853049790e-05  3.3546134216342312e-05  5.9341286721205175e-05  -5.9341286723683478e-05  -3.3546134216912500e-05  1.8870205359700038e-04  -1.4334183195507901e-15  -1.5271794131714665e-04  -8.2248756165269468e-05  4.4458838573786596e-04  2.2684189776443157e-04  -5.3471031771572155e-04  -1.2159107126856749e-04  8.9686984729448653e-04  1.0414064711011485e-03  -6.7240415520050006e-04  -1.9230287264671988e-04  1.7127700114973863e-03  2.5516047740919111e-03  -1.0177624667255625e-03  -2.2776520577075117e-03  6.8859180045238223e-04  2.8565818595606344e-03  -5.0659188535401398e-15  -3.5540814460976100e-03  -2.8671816015277984e-03  6.4506714186191103e-04  4.9361787184787663e-03  3.1991716992618071e-03  1.6435008494313284e-03  -4.5094173387491120e-03  -3.8664458961809875e-03  -3.6223339607846067e-16  -3.5571051062932829e-06  2.1603774222272535e-05  4.6922583310831978e-05  6.0580703637554973e-05  -6.0580703640085040e-05  7.1856022024313279e-05  1.7181193350399422e-04  -1.3729207322704130e-15  -1.6608601858726245e-04  -8.7259827683050975e-05  4.0722502361945984e-04  2.4936988706343523e-04  -4.8829402989502418e-04  -1.3366645231319821e-04  8.2149659429794669e-04  1.1048549966360787e-03  -7.3126266668868461e-04  -1.8418670748855586e-04  1.5594654202941978e-03  8.0476927234910572e-04  -1.0390197074728344e-03  -2.3719812146647443e-03  7.4254663470264435e-04  3.1402730391800996e-03  -5.0279395080973238e-15  -3.2455643633433331e-03  -3.1313032140347407e-03  6.1784200793957875e-04  5.2369193708133146e-03  3.0641502847443352e-03  1.7948983382674120e-03  -4.1179709683233576e-03  6.6203677041431900e-06  -3.9820730632616823e-16  -3.5304373827244567e-06  1.9788185544553501e-05  4.2849401888879024e-05  -4.6922583312791653e-05  -2.5983047126141915e-05  6.5618458077204038e-05  1.5737279902881211e-04  -1.3626279044016719e-15  -1.8258025570272460e-04  -9.0873700993384591e-05  3.7934615211451643e-04  2.7430791066263027e-04  -4.4458838574110165e-04  -1.4703365226448686e-04  7.6525644041294675e-04  1.1506126618773475e-03  -8.0388539508355621e-04  -1.8280585422344799e-04  1.4284074055579807e-03  7.3491013378939533e-04  -1.9763370248310113e-03  -2.4215230059732376e-03  7.8778688471087700e-04  3.4543133753297014e-03  -5.1797083208190382e-15  -2.9550642292879752e-03  -3.3766574947414855e-03  6.1321002789271732e-04  5.4538068394809546e-03  3.0411782582438177e-03  1.9355381807309227e-03  3.5571051061101201e-06  6.7586423553741476e-06  -4.3802968953159392e-16  -3.6370039571833444e-06  1.8433474389503975e-05  3.9014088334940297e-05  -4.2849401890668561e-05  -2.3727551853453087e-05  5.9745158788109924e-05  1.4659896199025767e-04  -1.4037589520006861e-15  -2.0083903898678390e-04  -9.2771711779562329e-05  3.6333580354145283e-04  2.9957685339336549e-04  -4.0722502362242362e-04  -1.6057823043427833e-04  7.3295870313394996e-04  1.1746446449382650e-03  -8.8427727074151074e-04  -1.8832386560950178e-04  1.3306177703280163e-03  6.6913066726711167e-04  -1.8047782851995278e-03  -4.3602302930873091e-04  8.2041314667449599e-04  3.7725209204360929e-03  -5.5099147822128309e-15  -2.7067196066573366e-03  -3.5823830641738361e-03  6.3171982852425754e-04  5.5677164095095629e-03  3.1329765013979795e-03  -5.1830405204115630e-17  3.5304373825426652e-06  -4.5068093807523667e-16  -4.7838050228211919e-16  -3.8688629987339407e-06  1.7655487453974150e-05  3.5735330821384070e-05  -3.9014088336569670e-05  -2.1603774222639731e-05  5.4724154924239324e-05  1.4041173570937838e-04  -1.4932486003515245e-15  -2.1934011014435124e-04  1.5128030340071490e-04  3.6061186413511995e-04  3.2305029507454007e-04  -3.7934615211727719e-04  -1.7316038985236879e-04  7.2746368977379963e-04  -4.44717963430