<?xml version="1.0"?>
<VTKFile type="UnstructuredGrid"  version="0.1"  >
<UnstructuredGrid>
<Piece  NumberOfPoints="1089" NumberOfCells="2048">
<Points>
<DataArray  type="Float64"  NumberOfComponents="3"  format="ascii">0 0 0  0.03125 0 0  0.0625 0 0  0.09375 0 0  0.125 0 0  0.15625 0 0  0.1875 0 0  0.21875 0 0  0.25 0 0  0.28125 0 0  0.3125 0 0  0.34375 0 0  0.375 0 0  0.40625 0 0  0.4375 0 0  0.46875 0 0  0.5 0 0  0.53125 0 0  0.5625 0 0  0.59375 0 0  0.625 0 0  0.65625 0 0  0.6875 0 0  0.71875 0 0  0.75 0 0  0.78125 0 0  0.8125 0 0  0.84375 0 0  0.875 0 0  0.90625 0 0  0.9375 0 0  0.96875 0 0  1 0 0  0 0.03125 0  0.03125 0.03125 0  0.0625 0.03125 0  0.09375 0.03125 0  0.125 0.03125 0  0.15625 0.03125 0  0.1875 0.03125 0  0.21875 0.03125 0  0.25 0.03125 0  0.28125 0.03125 0  0.3125 0.03125 0  0.34375 0.03125 0  0.375 0.03125 0  0.40625 0.03125 0  0.4375 0.03125 0  0.46875 0.03125 0  0.5 0.03125 0  0.53125 0.03125 0  0.5625 0.03125 0  0.59375 0.03125 0  0.625 0.03125 0  0.65625 0.03125 0  0.6875 0.03125 0  0.71875 0.03125 0  0.75 0.03125 0  0.78125 0.03125 0  0.8125 0.03125 0  0.84375 0.03125 0  0.875 0.03125 0  0.90625 0.03125 0  0.9375 0.03125 0  0.96875 0.03125 0  1 0.03125 0  0 0.0625 0  0.03125 0.0625 0  0.0625 0.0625 0  0.09375 0.0625 0  0.125 0.0625 0  0.15625 0.0625 0  0.1875 0.0625 0  0.21875 0.0625 0  0.25 0.0625 0  0.28125 0.0625 0  0.3125 0.0625 0  0.34375 0.0625 0  0.375 0.0625 0  0.40625 0.0625 0  0.4375 0.0625 0  0.46875 0.0625 0  0.5 0.0625 0  0.53125 0.0625 0  0.5625 0.0625 0  0.59375 0.0625 0  0.625 0.0625 0  0.65625 0.0625 0  0.6875 0.0625 0  0.71875 0.0625 0  0.75 0.0625 0  0.78125 0.0625 0  0.8125 0.0625 0  0.84375 0.0625 0  0.875 0.0625 0  0.90625 0.0625 0  0.9375 0.0625 0  0.96875 0.0625 0  1 0.0625 0  0 0.09375 0  0.03125 0.09375 0  0.0625 0.09375 0  0.09375 0.09375 0  0.125 0.09375 0  0.15625 0.09375 0  0.1875 0.09375 0  0.21875 0.09375 0  0.25 0.09375 0  0.28125 0.09375 0  0.3125 0.09375 0  0.34375 0.09375 0  0.375 0.09375 0  0.40625 0.09375 0  0.4375 0.09375 0  0.46875 0.09375 0  0.5 0.09375 0  0.53125 0.09375 0  0.5625 0.09375 0  0.59375 0.09375 0  0.625 0.09375 0  0.65625 0.09375 0  0.6875 0.09375 0  0.71875 0.09375 0  0.75 0.09375 0  0.78125 0.09375 0  0.8125 0.09375 0  0.84375 0.09375 0  0.875 0.09375 0  0.90625 0.09375 0  0.9375 0.09375 0  0.96875 0.09375 0  1 0.09375 0  0 0.125 0  0.03125 0.125 0  0.0625 0.125 0  0.09375 0.125 0  0.125 0.125 0  0.15625 0.125 0  0.1875 0.125 0  0.21875 0.125 0  0.25 0.125 0  0.28125 0.125 0  0.3125 0.125 0  0.34375 0.125 0  0.375 0.125 0  0.40625 0.125 0  0.4375 0.125 0  0.46875 0.125 0  0.5 0.125 0  0.53125 0.125 0  0.5625 0.125 0  0.59375 0.125 0  0.625 0.125 0  0.65625 0.125 0  0.6875 0.125 0  0.71875 0.125 0  0.75 0.125 0  0.78125 0.125 0  0.8125 0.125 0  0.84375 0.125 0  0.875 0.125 0  0.90625 0.125 0  0.9375 0.125 0  0.96875 0.125 0  1 0.125 0  0 0.15625 0  0.03125 0.15625 0  0.0625 0.15625 0  0.09375 0.15625 0  0.125 0.15625 0  0.15625 0.15625 0  0.1875 0.15625 0  0.21875 0.15625 0  0.25 0.15625 0  0.28125 0.15625 0  0.3125 0.15625 0  0.34375 0.15625 0  0.375 0.15625 0  0.40625 0.15625 0  0.4375 0.15625 0  0.46875 0.15625 0  0.5 0.15625 0  0.53125 0.15625 0  0.5625 0.15625 0  0.59375 0.15625 0  0.625 0.15625 0  0.65625 0.15625 0  0.6875 0.15625 0  0.71875 0.15625 0  0.75 0.15625 0  0.78125 0.15625 0  0.8125 0.15625 0  0.84375 0.15625 0  0.875 0.15625 0  0.90625 0.15625 0  0.9375 0.15625 0  0.96875 0.15625 0  1 0.15625 0  0 0.1875 0  0.03125 0.1875 0  0.0625 0.1875 0  0.09375 0.1875 0  0.125 0.1875 0  0.15625 0.1875 0  0.1875 0.1875 0  0.21875 0.1875 0  0.25 0.1875 0  0.28125 0.1875 0  0.3125 0.1875 0  0.34375 0.1875 0  0.375 0.1875 0  0.40625 0.1875 0  0.4375 0.1875 0  0.46875 0.1875 0  0.5 0.1875 0  0.53125 0.1875 0  0.5625 0.1875 0  0.59375 0.1875 0  0.625 0.1875 0  0.65625 0.1875 0  0.6875 0.1875 0  0.71875 0.1875 0  0.75 0.1875 0  0.78125 0.1875 0  0.8125 0.1875 0  0.84375 0.1875 0  0.875 0.1875 0  0.90625 0.1875 0  0.9375 0.1875 0  0.96875 0.1875 0  1 0.1875 0  0 0.21875 0  0.03125 0.21875 0  0.0625 0.21875 0  0.09375 0.21875 0  0.125 0.21875 0  0.15625 0.21875 0  0.1875 0.21875 0  0.21875 0.21875 0  0.25 0.21875 0  0.28125 0.21875 0  0.3125 0.21875 0  0.34375 0.21875 0  0.375 0.21875 0  0.40625 0.21875 0  0.4375 0.21875 0  0.46875 0.21875 0  0.5 0.21875 0  0.53125 0.21875 0  0.5625 0.21875 0  0.59375 0.21875 0  0.625 0.21875 0  0.65625 0.21875 0  0.6875 0.21875 0  0.71875 0.21875 0  0.75 0.21875 0  0.78125 0.21875 0  0.8125 0.21875 0  0.84375 0.21875 0  0.875 0.21875 0  0.90625 0.21875 0  0.9375 0.21875 0  0.96875 0.21875 0  1 0.21875 0  0 0.25 0  0.03125 0.25 0  0.0625 0.25 0  0.09375 0.25 0  0.125 0.25 0  0.15625 0.25 0  0.1875 0.25 0  0.21875 0.25 0  0.25 0.25 0  0.28125 0.25 0  0.3125 0.25 0  0.34375 0.25 0  0.375 0.25 0  0.40625 0.25 0  0.4375 0.25 0  0.46875 0.25 0  0.5 0.25 0  0.53125 0.25 0  0.5625 0.25 0  0.59375 0.25 0  0.625 0.25 0  0.65625 0.25 0  0.6875 0.25 0  0.71875 0.25 0  0.75 0.25 0  0.78125 0.25 0  0.8125 0.25 0  0.84375 0.25 0  0.875 0.25 0  0.90625 0.25 0  0.9375 0.25 0  0.96875 0.25 0  1 0.25 0  0 0.28125 0  0.03125 0.28125 0  0.0625 0.28125 0  0.09375 0.28125 0  0.125 0.28125 0  0.15625 0.28125 0  0.1875 0.28125 0  0.21875 0.28125 0  0.25 0.28125 0  0.28125 0.28125 0  0.3125 0.28125 0  0.34375 0.28125 0  0.375 0.28125 0  0.40625 0.28125 0  0.4375 0.28125 0  0.46875 0.28125 0  0.5 0.28125 0  0.53125 0.28125 0  0.5625 0.28125 0  0.59375 0.28125 0  0.625 0.28125 0  0.65625 0.28125 0  0.6875 0.28125 0  0.71875 0.28125 0  0.75 0.28125 0  0.78125 0.28125 0  0.8125 0.28125 0  0.84375 0.28125 0  0.875 0.28125 0  0.90625 0.28125 0  0.9375 0.28125 0  0.96875 0.28125 0  1 0.28125 0  0 0.3125 0  0.03125 0.3125 0  0.0625 0.3125 0  0.09375 0.3125 0  0.125 0.3125 0  0.15625 0.3125 0  0.1875 0.3125 0  0.21875 0.3125 0  0.25 0.3125 0  0.28125 0.3125 0  0.3125 0.3125 0  0.34375 0.3125 0  0.375 0.3125 0  0.40625 0.3125 0  0.4375 0.3125 0  0.46875 0.3125 0  0.5 0.3125 0  0.53125 0.3125 0  0.5625 0.3125 0  0.59375 0.3125 0  0.625 0.3125 0  0.65625 0.3125 0  0.6875 0.3125 0  0.71875 0.3125 0  0.75 0.3125 0  0.78125 0.3125 0  0.8125 0.3125 0  0.84375 0.3125 0  0.875 0.3125 0  0.90625 0.3125 0  0.9375 0.3125 0  0.96875 0.3125 0  1 0.3125 0  0 0.34375 0  0.03125 0.34375 0  0.0625 0.34375 0  0.09375 0.34375 0  0.125 0.34375 0  0.15625 0.34375 0  0.1875 0.34375 0  0.21875 0.34375 0  0.25 0.34375 0  0.28125 0.34375 0  0.3125 0.34375 0  0.34375 0.34375 0  0.375 0.34375 0  0.40625 0.34375 0  0.4375 0.34375 0  0.46875 0.34375 0  0.5 0.34375 0  0.53125 0.34375 0  0.5625 0.34375 0  0.59375 0.34375 0  0.625 0.34375 0  0.65625 0.34375 0  0.6875 0.34375 0  0.71875 0.34375 0  0.75 0.34375 0  0.78125 0.34375 0  0.8125 0.34375 0  0.84375 0.34375 0  0.875 0.34375 0  0.90625 0.34375 0  0.9375 0.34375 0  0.96875 0.34375 0  1 0.34375 0  0 0.375 0  0.03125 0.375 0  0.0625 0.375 0  0.09375 0.375 0  0.125 0.375 0  0.15625 0.375 0  0.1875 0.375 0  0.21875 0.375 0  0.25 0.375 0  0.28125 0.375 0  0.3125 0.375 0  0.34375 0.375 0  0.375 0.375 0  0.40625 0.375 0  0.4375 0.375 0  0.46875 0.375 0  0.5 0.375 0  0.53125 0.375 0  0.5625 0.375 0  0.59375 0.375 0  0.625 0.375 0  0.65625 0.375 0  0.6875 0.375 0  0.71875 0.375 0  0.75 0.375 0  0.78125 0.375 0  0.8125 0.375 0  0.84375 0.375 0  0.875 0.375 0  0.90625 0.375 0  0.9375 0.375 0  0.96875 0.375 0  1 0.375 0  0 0.40625 0  0.03125 0.40625 0  0.0625 0.40625 0  0.09375 0.40625 0  0.125 0.40625 0  0.15625 0.40625 0  0.1875 0.40625 0  0.21875 0.40625 0  0.25 0.40625 0  0.28125 0.40625 0  0.3125 0.40625 0  0.34375 0.40625 0  0.375 0.40625 0  0.40625 0.40625 0  0.4375 0.40625 0  0.46875 0.40625 0  0.5 0.40625 0  0.53125 0.40625 0  0.5625 0.40625 0  0.59375 0.40625 0  0.625 0.40625 0  0.65625 0.40625 0  0.6875 0.40625 0  0.71875 0.40625 0  0.75 0.40625 0  0.78125 0.40625 0  0.8125 0.40625 0  0.84375 0.40625 0  0.875 0.40625 0  0.90625 0.40625 0  0.9375 0.40625 0  0.96875 0.40625 0  1 0.40625 0  0 0.4375 0  0.03125 0.4375 0  0.0625 0.4375 0  0.09375 0.4375 0  0.125 0.4375 0  0.15625 0.4375 0  0.1875 0.4375 0  0.21875 0.4375 0  0.25 0.4375 0  0.28125 0.4375 0  0.3125 0.4375 0  0.34375 0.4375 0  0.375 0.4375 0  0.40625 0.4375 0  0.4375 0.4375 0  0.46875 0.4375 0  0.5 0.4375 0  0.53125 0.4375 0  0.5625 0.4375 0  0.59375 0.4375 0  0.625 0.4375 0  0.65625 0.4375 0  0.6875 0.4375 0  0.71875 0.4375 0  0.75 0.4375 0  0.78125 0.4375 0  0.8125 0.4375 0  0.84375 0.4375 0  0.875 0.4375 0  0.90625 0.4375 0  0.9375 0.4375 0  0.96875 0.4375 0  1 0.4375 0  0 0.46875 0  0.03125 0.46875 0  0.0625 0.46875 0  0.09375 0.46875 0  0.125 0.46875 0  0.15625 0.46875 0  0.1875 0.46875 0  0.21875 0.46875 0  0.25 0.46875 0  0.28125 0.46875 0  0.3125 0.46875 0  0.34375 0.46875 0  0.375 0.46875 0  0.40625 0.46875 0  0.4375 0.46875 0  0.46875 0.46875 0  0.5 0.46875 0  0.53125 0.46875 0  0.5625 0.46875 0  0.59375 0.46875 0  0.625 0.46875 0  0.65625 0.46875 0  0.6875 0.46875 0  0.71875 0.46875 0  0.75 0.46875 0  0.78125 0.46875 0  0.8125 0.46875 0  0.84375 0.46875 0  0.875 0.46875 0  0.90625 0.46875 0  0.9375 0.46875 0  0.96875 0.46875 0  1 0.46875 0  0 0.5 0  0.03125 0.5 0  0.0625 0.5 0  0.09375 0.5 0  0.125 0.5 0  0.15625 0.5 0  0.1875 0.5 0  0.21875 0.5 0  0.25 0.5 0  0.28125 0.5 0  0.3125 0.5 0  0.34375 0.5 0  0.375 0.5 0  0.40625 0.5 0  0.4375 0.5 0  0.46875 0.5 0  0.5 0.5 0  0.53125 0.5 0  0.5625 0.5 0  0.59375 0.5 0  0.625 0.5 0  0.65625 0.5 0  0.6875 0.5 0  0.71875 0.5 0  0.75 0.5 0  0.78125 0.5 0  0.8125 0.5 0  0.84375 0.5 0  0.875 0.5 0  0.90625 0.5 0  0.9375 0.5 0  0.96875 0.5 0  1 0.5 0  0 0.53125 0  0.03125 0.53125 0  0.0625 0.53125 0  0.09375 0.53125 0  0.125 0.53125 0  0.15625 0.53125 0  0.1875 0.53125 0  0.21875 0.53125 0  0.25 0.53125 0  0.28125 0.53125 0  0.3125 0.53125 0  0.34375 0.53125 0  0.375 0.53125 0  0.40625 0.53125 0  0.4375 0.53125 0  0.46875 0.53125 0  0.5 0.53125 0  0.53125 0.53125 0  0.5625 0.53125 0  0.59375 0.53125 0  0.625 0.53125 0  0.65625 0.53125 0  0.6875 0.53125 0  0.71875 0.53125 0  0.75 0.53125 0  0.78125 0.531
[...]
<PointData  Scalars="theta_dt"> 
<DataArray  type="Float64"  Name="theta_dt"  format="ascii">6.9593723220956749e-03  6.6951804834293249e-02  1.8843208992498917e-01  7.9792145020416733e-02  1.0965787397566353e-02  7.5119397791018588e-02  1.8342004004678567e-01  2.1853326182374652e-01  3.4800775033096039e-02  5.2018826828059139e-03  6.7522081168617812e-02  1.2489804105133689e-01  2.5725222815725585e-01  1.9510584312783330e-01  7.3994707485558031e-02  6.1538931113200204e-02  5.4500314522101618e-03  5.3732739461163304e-02  9.7886255552605814e-02  1.5092352991307578e-01  2.1016181103425063e-01  2.4012375673815703e-01  2.2952168568891784e-01  1.8250384328593908e-01  1.1665935396200808e-01  6.3914247201344615e-02  1.1508730269452502e-01  3.5563713307315940e-02  5.5958085513130557e-02  5.0113645361300110e-03  7.1975384152512803e-03  8.5754072814801206e-03  3.7985850704062808e-03  1.3918256507479082e-01  7.6505174180636331e-03  6.8972751170841701e-02  1.9623602122615733e-01  8.7716415655073335e-02  1.1194821568421000e-02  8.1694931127141227e-02  1.9779197687844563e-01  2.2309760204039811e-01  3.4539872579884452e-02  5.3589019861240358e-03  6.9560241348340879e-02  1.2396167669506530e-01  2.6262526236267764e-01  2.1039342485666590e-01  8.0471791701828194e-02  6.2824248578494224e-02  5.9912817743271295e-03  5.5958085513130418e-02  1.0084096110605723e-01  1.6591195886009683e-01  2.2952168568891756e-01  2.5893873171439968e-01  2.4750593194344836e-01  1.9931589640169250e-01  1.2824495919448575e-01  6.5843504583643714e-02  1.1985365328917347e-01  3.9095595912406966e-02  5.7126840045154191e-02  5.4500314522101818e-03  7.7615038762829745e-03  8.7545153769818251e-03  8.2004958782077975e-02  1.4766237462007570e-01  8.4156009097572006e-03  7.3369764802898224e-02  2.0033465571393907e-01  9.6488421246456429e-02  5.6749175788551208e-03  8.9808170137891705e-02  2.0984261190312223e-01  9.8062478665093253e-02  3.5582461784580736e-02  5.7005320456163348e-03  7.3994707485557948e-02  1.2770347121441147e-01  1.3822090482432051e-01  2.2321181321878605e-01  8.8463559008470222e-02  5.2411759358462796e-03  6.5904348157670893e-03  5.7126840045154052e-02  1.0726957346566492e-01  1.8250384328593874e-01  2.4750593194344811e-01  2.7471478188027942e-01  2.6258542960237480e-01  2.1493335822265894e-01  1.4106998733453674e-01  7.0041028711970071e-02  1.2235694658766277e-01  4.3005317751596737e-02  4.6075424192582107e-03  5.9912817743271504e-03  8.2343797326842657e-03  9.1908368004016989e-03  8.4480285943752412e-02  1.5377782463584080e-01  9.1908368004017128e-03  7.9792145020416622e-02  1.0543706698790341e-01  1.0537682838267813e-01  5.6323725517202676e-03  9.8789359858403314e-02  2.1853326182374647e-01  9.7327301324146159e-02  3.7850844107643319e-02  6.1995248437730181e-03  8.0471791701828096e-02  1.3584456888354562e-01  1.3718465855912965e-01  2.3245614976816048e-01  9.7310282035861354e-02  5.2018826828059261e-03  7.1975384152512525e-03  6.4397033692563679e-02  1.1665935396200784e-01  1.9931589640169217e-01  2.6258542960237452e-01  2.8609211833110643e-01  2.7346042787958119e-01  2.2802834567081565e-01  1.5406519925668274e-01  7.6172029927836393e-02  3.0066123303443354e-02  4.6966920276136047e-02  4.5729995356782382e-03  6.5904348157671119e-03  3.2731936977735097e-02  9.9109878040312700e-03  8.9865905085065534e-02  1.5698966663900765e-01  9.9109878040312856e-03  8.7716415655073265e-02  1.0464660213732412e-01  1.1363366400789239e-01  5.8023862310026654e-03  1.0788972692633739e-01  2.2309760204039805e-01  1.0026513479322133e-01  4.1164096004611350e-02  6.8152084133244412e-03  8.8463559008470111e-02  1.4773564518996080e-01  1.4132558999229861e-01  2.3731128689529737e-01  1.0627439808317474e-01  5.3589019861240480e-03  7.7615038762829467e-03  6.3914247201344421e-02  1.2824495919448547e-01  2.1493335822265858e-01  2.7346042787958097e-01  2.9206750967642442e-01  2.7917199058732228e-01  2.3747215932825827e-01  1.6613702800074676e-01  8.3736781818951653e-02  2.9840716676120514e-02  5.0647028574084610e-02  4.7110359438309411e-03  1.3024610587142207e-01  3.4818598313575214e-02  1.0514822694835772e-02  9.7732265466595747e-02  6.3266833752996063e-02  1.0514822694835786e-02  9.6488421246456346e-02  1.0780536936914259e-01  1.2055688623908223e-01  6.1722884158956640e-03  1.1634346153338934e-01  1.2421062521308004e-01  1.0665703821916675e-01  4.5252160526351740e-02  7.4967575379855248e-03  9.7310282035861215e-02  1.6240748080199141e-01  1.5033509788064384e-01  1.0026291703398758e-01  1.1460156307389484e-01  5.7005320456163452e-03  8.2343797326842345e-03  6.5843504583643506e-02  1.4106998733453641e-01  2.2802834567081523e-01  2.7917199058732201e-01  1.4692952533750644e-01  1.2759312900050859e-01  2.4243206208224391e-01  1.7625905984510135e-01  9.2110807511117360e-02  3.0741461431184943e-02  5.3732739461163442e-02  5.0007976294754015e-02  1.3296645852680258e-01  3.7866424316719091e-02  1.0950294986137785e-02  1.0743819480459325e-01  6.2792520404589616e-02  1.0950294986137801e-02  1.0537682838267799e-01  1.1467796283073846e-01  1.2554976010927635e-01  6.7125761369420389e-03  1.2343178035487519e-01  1.2327941443394591e-01  1.1599320079455533e-01  4.9777564376872210e-02  8.1873505888237514e-03  1.0627439808317457e-01  1.7864890287832896e-01  1.6349459431928035e-01  9.9511242940653749e-02  1.2158375533293514e-01  6.1995248437730329e-03  8.5754072814800894e-03  7.0041028711969822e-02  1.5406519925668238e-01  2.3747215932825788e-01  1.5371649739282045e-01  1.4582799028337864e-01  1.2663655948912506e-01  9.8625655043739158e-02  1.8355884405270220e-01  1.0059595368957681e-01  3.2701229929435062e-02  6.7623582616469051e-03  5.3926367525090856e-02  6.9980869484975991e-02  4.1626992404914347e-02  1.1179005578622961e-02  1.1818246015693026e-01  6.4687918361200025e-02  1.1179005578622976e-02  1.1363366400789225e-01  1.2471623243468233e-01  1.2817202371562800e-01  7.3792115551433732e-03  1.2854371821351579e-01  1.2700061480470137e-01  1.2751264941497950e-01  5.4363018804621750e-02  8.8288731043090537e-03  1.1460156307389467e-01  1.9510584312783308e-01  1.7973147343009849e-01  1.0251499888665157e-01  1.2661915707546201e-01  6.8152084133244568e-03  8.7545153769817939e-03  7.6172029927836171e-02  1.6613702800074631e-01  2.4243206208224352e-01  1.5256408020582554e-01  1.5022982147312519e-01  1.3045909558962407e-01  9.7886255552606036e-02  1.8739269985588680e-01  1.0847818232489066e-01  5.6632275253708078e-02  7.4386221518104485e-03  5.7211874771175009e-02  6.9456220809504032e-02  4.5789864398729695e-02  3.4265270100521154e-02  1.2906929827351588e-01  6.8811773855365105e-02  5.8918869899008755e-03  1.2055688623908208e-01  1.3710197764925566e-01  3.5206466887954889e-02  8.1171633346170721e-03  1.3122851437563543e-01  1.3509690537012550e-01  1.4026444353797132e-01  5.8622650805787359e-02  9.3667792880598594e-03  1.2158375533293499e-01  2.1039342485666565e-01  1.9770536666435939e-01  1.0905033117285193e-01  1.2926375637359619e-01  7.4967575379855404e-03  3.0066123303443271e-02  8.3736781818951431e-02  1.7625905984510093e-01  1.4692952533750631e-01  1.5716924088437559e-01  1.5980697421453999e-01  1.3877586434243905e-01  1.0084096110605750e-01  6.4397033692563846e-02  5.6632275253708050e-02  6.2256506506695751e-02  8.1238598348784222e-03  5.9581309512906210e-02  7.1552763170727576e-02  5.0007976294754092e-02  3.4008382343835207e-02  1.3918256507479068e-01  7.4835172953457776e-02  5.8477153365900317e-03  1.2554976010927618e-01  1.5081274439168801e-01  3.4942522950751030e-02  8.8649074844047559e-03  9.8062478665093142e-02  1.4692253538036071e-01  1.5318544965244180e-01  6.2194282882015381e-02  9.7547052623794279e-03  1.2661915707546181e-01  2.2321181321878578e-01  2.1591776737760415e-01  1.1859598927220420e-01  3.3064696081809786e-02  8.1873505888237687e-03  2.9840716676120437e-02  9.2110807511117054e-02  1.8355884405270176e-01  1.4582799028337848e-01  1.6718878168820439e-01  1.7379558590730085e-01  1.5092352991307603e-01  1.0726957346566514e-01  6.7623582616468921e-03  6.2256506506695702e-02  6.8482415523819687e-02  8.7604075117099778e-03  6.0825739605153945e-02  7.6114252595641335e-02  5.3926367525090939e-02  3.5034928467271596e-02  1.4766237462007556e-01  8.2267159690031899e-02  6.0242291574781944e-03  1.2817202371562783e-01  1.6470544836764286e-01  3.5997266193623416e-02  9.5595201905838475e-03  9.7327301324146062e-02  1.6151361990861840e-01  1.6518834533043181e-01  6.4770064486570522e-02  9.9584444696703116e-03  1.2926375637359602e-01  2.3245614976816018e-01  2.3283607419289237e-01  1.3037392449298713e-01  3.2816809064516742e-02  8.8288731043090710e-03  3.0741461431184867e-02  1.0059595368957648e-01  1.8739269985588636e-01  1.5022982147312502e-01  1.8182355565797062e-01  1.9105547104368595e-01  1.6591195886009708e-01  3.7442863428688911e-02  7.4386221518104338e-03  6.8482415523819645e-02  7.4790940246105692e-02  9.2941423742515985e-03  5.6655066627711172e-02  8.2776869975629663e-02  5.7211874771175092e-02  3.7268405535442285e-02  1.5377782463584067e-01  9.0494217070327690e-02  6.4082738313299492e-03  9.2106868158021174e-02  1.7761099728784924e-01  3.8292092302242405e-02  1.0141941634799196e-02  1.0026513479322126e-01  1.7766565218606789e-01  1.7525257792127463e-01  6.6122868209463781e-02  3.3064696081809661e-02  1.0026291703398742e-01  2.3731128689529710e-01  2.4702179898799576e-01  1.4341185799816095e-01  3.3807387439816566e-02  9.3667792880598785e-03  3.2701229929434979e-02  1.0847818232489034e-01  1.2759312900050837e-01  1.5980697421453982e-01  1.9988070981043335e-01  2.1016181103425080e-01  6.9377004493064484e-02  4.0376711157957351e-02  8.1238598348784066e-03  7.4790940246105636e-02  8.0651208668919866e-02  9.6790600845036504e-03  5.6230321895561451e-02  9.0997557861747194e-02  5.9581309512906293e-02  4.0530674006552657e-02  1.5698966663900751e-01  9.8830444717168092e-02  6.9692184001634121e-03  9.1416340207502444e-02  1.8843208992498917e-01  4.1643968606466263e-02  1.0561971024750434e-02  1.0665703821916664e-01  1.9403201646431148e-01  1.8251067859295261e-01  5.6749175788551372e-03  3.2816809064516630e-02  9.9511242940653555e-02  1.3822090482432028e-01  2.5725222815725607e-01  1.5662280046755572e-01  3.5962608754229380e-02  9.7547052623794487e-03  3.5563713307315857e-02  1.1508730269452469e-01  1.2663655948912486e-01  1.7379558590730065e-01  2.1986961030269048e-01  2.4507639317177331e-02  7.0826029914072969e-02  4.2836694709061436e-02  8.7604075117099604e-03  8.0651208668919810e-02  8.5564948322603959e-02  9.8812193477407426e-03  5.7927639291545430e-02  1.0009769129064071e-01  6.0825739605154028e-02  4.4555832494907445e-02  8.9418543342536100e-02  1.0657433632332902e-01  7.6613413240526366e-03  9.4175750776049075e-02  1.9623602122615733e-01  4.5779689954154615e-02  1.0782570986115852e-02  1.1599320079455523e-01  2.0923545815603387e-01  1.8632264215089400e-01  5.6323725517202824e-03  3.3807387439816428e-02  1.0251499888665144e-01  1.3718465855912951e-01  2.6262526236267786e-01  1.6889503088547098e-01  3.9110575054162149e-02  9.9584444696703325e-03  3.9095595912406876e-02  1.1985365328917312e-01  1.3045909558962390e-01  1.9105547104368578e-01  5.8267705444040819e-03  2.6070001588333318e-02  3.7276071051833330e-02  4.4610780125254101e-02  9.2941423742515811e-03  8.5564948322603904e-02  8.9108628057639638e-02  5.6501362550461318e-03  6.1620526922008090e-02  1.0931858040970401e-01  5.6501362550461362e-03  4.9011600652500320e-02  8.8748169843713420e-02  1.1306746334646831e-01  8.4275072512646522e-03  1.0017945590513348e-01  2.0033465571393907e-01  5.0357848936719046e-02  3.4800775033095969e-02  1.2751264941497945e-01  2.2198329646703333e-01  6.9066181343601776e-02  5.8023862310026793e-03  3.5962608754229262e-02  1.0905033117285179e-01  1.4132558999229855e-01  1.2489804105133698e-01  1.7918509627034299e-01  4.2994701509553618e-02  4.6075424192581925e-03  4.3005317751596633e-02  1.2235694658766240e-01  1.3877586434243883e-01  1.8352004380141621e-02  6.2833290435484069e-03  2.8352024202435686e-02  3.6996611230198206e-02  4.5542532006512905e-02  9.6790600845036330e-03  8.9108628057639583e-02  9.0969773090207581e-02  5.6077770142384390e-03  6.7014444350530777e-02  1.1788427329568449e-01  5.6077770142384407e-03  5.3526495345249052e-02  9.1427041446427354e-02  1.1775016211982714e-01  9.2038399409805332e-03  1.0894860703346682e-01  9.2106868158021271e-02  5.4996758539256917e-02  3.4539872579884390e-02  1.4026444353797121e-01  2.3117675388888320e-01  6.8548390112533941e-02  6.1722884158956813e-03  3.9110575054162024e-02  1.1859598927220399e-01  1.5033509788064373e-01  1.2396167669506540e-01  1.8660606252955933e-01  4.7294350089868535e-02  4.5729995356782226e-03  4.6966920276135922e-02  9.8625655043738977e-02  3.1147860834607646e-02  1.8905961306503242e-02  6.6661459112431227e-03  3.1167703775443131e-02  3.8113357315168260e-02  4.5521057842199102e-03  9.8812193477407235e-03  9.0969773090207526e-02  2.8535974057373636e-02  5.7770482749782380e-03  7.3669743482154132e-02  1.2506646731110987e-01  5.7770482749782397e-03  5.7720581278966197e-02  9.7255516326061955e-02  1.2020952137706571e-01  9.9250098099149288e-03  1.1976844709643478e-01  9.1416340207502542e-02  5.9306047423234073e-02  3.5582461784580660e-02  1.5318544965244166e-01  2.3600516923455730e-01  7.0617529521353334e-02  6.7125761369420580e-03  4.2994701509553493e-02  1.3037392449298693e-01  1.6349459431928018e-01  1.2770347121441161e-01  1.9050356329793947e-01  5.1651053551395966e-02  4.7110359438309254e-03  5.0647028574084499e-02  4.4120754763217751e-03  3.3045569268696208e-02  2.0111216543979848e-02  6.9422249206921678e-03  3.4284603499935520e-02  4.0543084255639822e-02  4.5179785107539519e-03  2.8535974057373646e-02  5.4666135597012423e-02  2.8322039004798780e-02  6.1453351649010295e-03  8.1037023562115312e-02  1.3024610587142210e-01  6.1453351649010295e-03  6.1237254044881631e-02  1.0576872208288839e-01  3.4265270100521231e-02  1.0529699002688011e-02  1.3174578884888960e-01  9.4175750776049158e-02  6.2919315987169655e-02  3.7850844107643243e-02  1.6518834533043172e-01  1.1741731218368216e-01  7.5119397791018769e-02  7.3792115551433949e-03  4.7294350089868389e-02  1.4341185799816072e-01  1.7973147343009832e-01  1.3584456888354576e-01  6.8032120010889305e-02  5.5698188634018361e-02  5.0113645361299919e-03  2.7457425737439064e-03  4.8502449242788324e-03  3.4414154377971171e-02  2.1871640332024812e-02  7.0872219620309483e-03  3.7442863428688897e-02  4.4091999847506606e-02  4.6543541042500663e-03  2.8322039004798790e-02  5.4256301940397211e-02  2.9176942335814200e-02  6.6832635486038707e-03  8.8502064954883677e-02  1.3296645852680261e-01  6.6832635486038725e-03  6.3773400217376333e-02  1.1627276327957681e-01  3.4008382343835290e-02  1.0965787397566333e-02  1.4388206587202135e-01  1.0017945590513362e-01  6.5525124900480680e-02  4.1164096004611288e-02  1.7525257792127452e-01  1.1653703107588784e-01  8.1694931127141435e-02  8.1171633346170981e-03  5.1651053551395799e-02  1.5662280046755550e-01  1.9770536666435928e-01  1.4773564518996102e-01  6.7522081168617895e-02  5.9091645503993609e-02  2.3399798503642943e-02  2.8286230638105555e-03  5.3352895453752536e-03  3.5132936990460238e-02  2.4043743828809964e-02  4.5521057842198998e-03  4.0376711157957330e-02  4.8470838635779313e-02  4.9510692286636859e-03  2.9176942335814207e-02  5.5894033363956201e-02  3.1036972724837408e-02  7.3469878922509989e-03  9.5436673009045153e-02  5.6655066627711276e-02  7.3469878922510041e-03  6.5105387361738626e-02  1.2790052214314843e-01  3.5034928467271673e-02  1.1194821568420983e-02  1.5515599189119553e-01  1.0894860703346697e-01  6.6893699003518589e-02  4.5252160526351656e-02  1.8251067859295245e-01  1.2005471198991172e-01  8.9808170137891913e-02  8.8649074844047836e-03  5.5698188634018181e-02  1.6889503088547073e-01  2.1591776737760393e-01  1.6240748080199163e-01  6.9560241348340948e-02  5.1488876559575899e-03  1.2315423477478620e-02  3.0089478146780027e-03  5.8267705444040776e-03  2.5264145061503616e-02  2.6448217993981858e-02  4.5179785107539450e-03  4.2836694709061394e-02  5.3318123654857622e-02  5.3844582296391618e-03  3.1036972724837405e-02  5.9457278594571769e-02  3.3753776304283806e-02  8.0817171717062538e-03  1.0125122895085764e-01  5.6230321895561527e-02  8.0817171717062573e-03  6.3266833752995980e-02  1.3968257743079662e-01  3.7268405535442362e-02  3.5206466887954861e-02  1.6460899529244843e-01  1.1976844709643490e-01  5.8918869899008842e-03  4.9777564376872099e-02  1.8632264215089386e-01  1.2770820117587633e-01  9.8789359858403550e-02  9.5595201905838735e-03  5.9091645503993422e-02  1.7918509627034271e-01  2.3283607419289215e-01  1.7864890287832916e-01  3.1632316906325358e-03  5.2564286078611161e-03  1.2223094378642219e-02  3.2723343332588819e-03  6.2833290435484034e-03  2.5074739008949579e-02  2.8884598717401441e-02  4.6543541042500603e-03  4.4610780125254067e-02  5.8229730505313680e-02  5.9191963823952689e-03  3.3753776304283813e-02  6.4661837323349070e-02  3.7105911508925393e-02  8.8261960599910743e-03  1.0544455735477168e-01  5.7927639291545527e-02  8.8261960599910778e-03  6.2792520404589533e-02  1.5062745116873061e-01  4.0530674006552740e-02  3.4942522950751016e-02  1.7142629106902213e-01  1.3174578884888971e-01  5.8477153365900404e-03  5.4363018804621625e-02  1.1741731218368212e-01  1.3888706520863131e-01  1.0788972692633765e-01  1.0141941634799227e-02  6.1538931113200003e-02  1.8660606252955902e-01  2.4702179898799553e-01  1.0811334079607923e-02  3.2292997367489463e-03  1.2315423477478634e-02  1.2592049597503631e-02  3.5973144783243787e-03  6.6661459112431192e-03  2.5831622293357899e-02  3.1147860834607674e-02  4.9510692286636772e-03  4.5542532006512870e-02  6.2792339958094787e-02  6.5111405854854070e-03  3.7105911508925400e-02  7.1083495727860588e-02  4.0816656650514330e-02  9.5177755199327557e-03  1.0764689868141870e-01  6.1620526922008242e-02  9.5177755199327592e-03  6.4687918361199942e-02  1.5980454958990262e-01  4.4555832494907549e-02  3.5997266193623395e-02  1.7500674334428643e-01  1.4388206587202143e-01  6.0242291574782066e-03  5.8622650805787227e-02  1.1653703107588785e-01  1.5268013584340104e-01  1.1634346153338961e-01  1.0561971024750465e-02  6.2824248578494016e-02  1.9050356329793916e-01  5.6473972112839194e-03  1.6995955664995137e-03  2.7664829795378335e-03  1.2223094378642220e-02  1.3394792895340384e-02  3.9570608551247116e-03  6.9422249206921634e-03  2.7478388493544607e-02  3.3045569268696243e-02  5.3844582296391523e-03  3.7276071051833337e-02  6.6618013694322450e-02  7.1109396877750671e-03  4.0816656650514337e-02  7.8192140299383081e-02  4.4576642124030050e-02  1.0097653636566364e-02  6.9980869484975977e-02  6.7014444350530916e-02  1.0097653636566369e-02  6.8811773855365022e-02  1.6642286883218330e-01  4.9011600652500417e-02  3.8292092302242377e-02  1.0543706698790341e-01  1.5515599189119572e-01  6.4082738313299597e-03  6.2194282882015256e-02  1.2005471198991166e-01  1.6794878305509295e-01  1.2343178035487548e-01  1.0782570986115883e-02  6.8032120010889166e-02  2.0103665795334360e-03  5.8178644112858559e-03  1.6868536476099050e-03  2.7457425737439081e-03  1.2592049597503634e-02  1.4567298397298763e-02  4.3215809445695964e-03  7.0872219620309431e-03  2.9883693446399733e-02  3.4414154377971198e-02  5.9191963823952620e-03  3.6996611230198206e-02  6.9377004493064470e-02  7.6681196773791425e-03  4.4576642124030057e-02  8.5395114178064987e-02  4.8069459400760871e-02  1.0515848835240456e-02  6.9456220809504005e-02  7.3669743482154271e-02  1.0515848835240460e-02  7.4835172953457638e-02  1.6989881838257218e-01  5.3526495345249170e-02  4.1643968606466228e-02  1.0464660213732412e-01  1.6460899529244863e-01  6.9692184001634233e-03  6.4770064486570383e-02  1.2770820117587625e-01  1.8342004004678569e-01  1.2854371821351609e-01  5.2411759358462692e-03  9.6475261801988032e-04  2.2100189243477743e-03  6.1887533303390790e-03  1.7377714788448964e-03  2.828623063