<?xml version="1.0"?>
<VTKFile type="UnstructuredGrid"  version="0.1"  >
<UnstructuredGrid>
<Piece  NumberOfPoints="1089" NumberOfCells="2048">
<Points>
<DataArray  type="Float64"  NumberOfComponents="3"  format="ascii">0 0 0  0.03125 0 0  0.0625 0 0  0.09375 0 0  0.125 0 0  0.15625 0 0  0.1875 0 0  0.21875 0 0  0.25 0 0  0.28125 0 0  0.3125 0 0  0.34375 0 0  0.375 0 0  0.40625 0 0  0.4375 0 0  0.46875 0 0  0.5 0 0  0.53125 0 0  0.5625 0 0  0.59375 0 0  0.625 0 0  0.65625 0 0  0.6875 0 0  0.71875 0 0  0.75 0 0  0.78125 0 0  0.8125 0 0  0.84375 0 0  0.875 0 0  0.90625 0 0  0.9375 0 0  0.96875 0 0  1 0 0  0 0.03125 0  0.03125 0.03125 0  0.0625 0.03125 0  0.09375 0.03125 0  0.125 0.03125 0  0.15625 0.03125 0  0.1875 0.03125 0  0.21875 0.03125 0  0.25 0.03125 0  0.28125 0.03125 0  0.3125 0.03125 0  0.34375 0.03125 0  0.375 0.03125 0  0.40625 0.03125 0  0.4375 0.03125 0  0.46875 0.03125 0  0.5 0.03125 0  0.53125 0.03125 0  0.5625 0.03125 0  0.59375 0.03125 0  0.625 0.03125 0  0.65625 0.03125 0  0.6875 0.03125 0  0.71875 0.03125 0  0.75 0.03125 0  0.78125 0.03125 0  0.8125 0.03125 0  0.84375 0.03125 0  0.875 0.03125 0  0.90625 0.03125 0  0.9375 0.03125 0  0.96875 0.03125 0  1 0.03125 0  0 0.0625 0  0.03125 0.0625 0  0.0625 0.0625 0  0.09375 0.0625 0  0.125 0.0625 0  0.15625 0.0625 0  0.1875 0.0625 0  0.21875 0.0625 0  0.25 0.0625 0  0.28125 0.0625 0  0.3125 0.0625 0  0.34375 0.0625 0  0.375 0.0625 0  0.40625 0.0625 0  0.4375 0.0625 0  0.46875 0.0625 0  0.5 0.0625 0  0.53125 0.0625 0  0.5625 0.0625 0  0.59375 0.0625 0  0.625 0.0625 0  0.65625 0.0625 0  0.6875 0.0625 0  0.71875 0.0625 0  0.75 0.0625 0  0.78125 0.0625 0  0.8125 0.0625 0  0.84375 0.0625 0  0.875 0.0625 0  0.90625 0.0625 0  0.9375 0.0625 0  0.96875 0.0625 0  1 0.0625 0  0 0.09375 0  0.03125 0.09375 0  0.0625 0.09375 0  0.09375 0.09375 0  0.125 0.09375 0  0.15625 0.09375 0  0.1875 0.09375 0  0.21875 0.09375 0  0.25 0.09375 0  0.28125 0.09375 0  0.3125 0.09375 0  0.34375 0.09375 0  0.375 0.09375 0  0.40625 0.09375 0  0.4375 0.09375 0  0.46875 0.09375 0  0.5 0.09375 0  0.53125 0.09375 0  0.5625 0.09375 0  0.59375 0.09375 0  0.625 0.09375 0  0.65625 0.09375 0  0.6875 0.09375 0  0.71875 0.09375 0  0.75 0.09375 0  0.78125 0.09375 0  0.8125 0.09375 0  0.84375 0.09375 0  0.875 0.09375 0  0.90625 0.09375 0  0.9375 0.09375 0  0.96875 0.09375 0  1 0.09375 0  0 0.125 0  0.03125 0.125 0  0.0625 0.125 0  0.09375 0.125 0  0.125 0.125 0  0.15625 0.125 0  0.1875 0.125 0  0.21875 0.125 0  0.25 0.125 0  0.28125 0.125 0  0.3125 0.125 0  0.34375 0.125 0  0.375 0.125 0  0.40625 0.125 0  0.4375 0.125 0  0.46875 0.125 0  0.5 0.125 0  0.53125 0.125 0  0.5625 0.125 0  0.59375 0.125 0  0.625 0.125 0  0.65625 0.125 0  0.6875 0.125 0  0.71875 0.125 0  0.75 0.125 0  0.78125 0.125 0  0.8125 0.125 0  0.84375 0.125 0  0.875 0.125 0  0.90625 0.125 0  0.9375 0.125 0  0.96875 0.125 0  1 0.125 0  0 0.15625 0  0.03125 0.15625 0  0.0625 0.15625 0  0.09375 0.15625 0  0.125 0.15625 0  0.15625 0.15625 0  0.1875 0.15625 0  0.21875 0.15625 0  0.25 0.15625 0  0.28125 0.15625 0  0.3125 0.15625 0  0.34375 0.15625 0  0.375 0.15625 0  0.40625 0.15625 0  0.4375 0.15625 0  0.46875 0.15625 0  0.5 0.15625 0  0.53125 0.15625 0  0.5625 0.15625 0  0.59375 0.15625 0  0.625 0.15625 0  0.65625 0.15625 0  0.6875 0.15625 0  0.71875 0.15625 0  0.75 0.15625 0  0.78125 0.15625 0  0.8125 0.15625 0  0.84375 0.15625 0  0.875 0.15625 0  0.90625 0.15625 0  0.9375 0.15625 0  0.96875 0.15625 0  1 0.15625 0  0 0.1875 0  0.03125 0.1875 0  0.0625 0.1875 0  0.09375 0.1875 0  0.125 0.1875 0  0.15625 0.1875 0  0.1875 0.1875 0  0.21875 0.1875 0  0.25 0.1875 0  0.28125 0.1875 0  0.3125 0.1875 0  0.34375 0.1875 0  0.375 0.1875 0  0.40625 0.1875 0  0.4375 0.1875 0  0.46875 0.1875 0  0.5 0.1875 0  0.53125 0.1875 0  0.5625 0.1875 0  0.59375 0.1875 0  0.625 0.1875 0  0.65625 0.1875 0  0.6875 0.1875 0  0.71875 0.1875 0  0.75 0.1875 0  0.78125 0.1875 0  0.8125 0.1875 0  0.84375 0.1875 0  0.875 0.1875 0  0.90625 0.1875 0  0.9375 0.1875 0  0.96875 0.1875 0  1 0.1875 0  0 0.21875 0  0.03125 0.21875 0  0.0625 0.21875 0  0.09375 0.21875 0  0.125 0.21875 0  0.15625 0.21875 0  0.1875 0.21875 0  0.21875 0.21875 0  0.25 0.21875 0  0.28125 0.21875 0  0.3125 0.21875 0  0.34375 0.21875 0  0.375 0.21875 0  0.40625 0.21875 0  0.4375 0.21875 0  0.46875 0.21875 0  0.5 0.21875 0  0.53125 0.21875 0  0.5625 0.21875 0  0.59375 0.21875 0  0.625 0.21875 0  0.65625 0.21875 0  0.6875 0.21875 0  0.71875 0.21875 0  0.75 0.21875 0  0.78125 0.21875 0  0.8125 0.21875 0  0.84375 0.21875 0  0.875 0.21875 0  0.90625 0.21875 0  0.9375 0.21875 0  0.96875 0.21875 0  1 0.21875 0  0 0.25 0  0.03125 0.25 0  0.0625 0.25 0  0.09375 0.25 0  0.125 0.25 0  0.15625 0.25 0  0.1875 0.25 0  0.21875 0.25 0  0.25 0.25 0  0.28125 0.25 0  0.3125 0.25 0  0.34375 0.25 0  0.375 0.25 0  0.40625 0.25 0  0.4375 0.25 0  0.46875 0.25 0  0.5 0.25 0  0.53125 0.25 0  0.5625 0.25 0  0.59375 0.25 0  0.625 0.25 0  0.65625 0.25 0  0.6875 0.25 0  0.71875 0.25 0  0.75 0.25 0  0.78125 0.25 0  0.8125 0.25 0  0.84375 0.25 0  0.875 0.25 0  0.90625 0.25 0  0.9375 0.25 0  0.96875 0.25 0  1 0.25 0  0 0.28125 0  0.03125 0.28125 0  0.0625 0.28125 0  0.09375 0.28125 0  0.125 0.28125 0  0.15625 0.28125 0  0.1875 0.28125 0  0.21875 0.28125 0  0.25 0.28125 0  0.28125 0.28125 0  0.3125 0.28125 0  0.34375 0.28125 0  0.375 0.28125 0  0.40625 0.28125 0  0.4375 0.28125 0  0.46875 0.28125 0  0.5 0.28125 0  0.53125 0.28125 0  0.5625 0.28125 0  0.59375 0.28125 0  0.625 0.28125 0  0.65625 0.28125 0  0.6875 0.28125 0  0.71875 0.28125 0  0.75 0.28125 0  0.78125 0.28125 0  0.8125 0.28125 0  0.84375 0.28125 0  0.875 0.28125 0  0.90625 0.28125 0  0.9375 0.28125 0  0.96875 0.28125 0  1 0.28125 0  0 0.3125 0  0.03125 0.3125 0  0.0625 0.3125 0  0.09375 0.3125 0  0.125 0.3125 0  0.15625 0.3125 0  0.1875 0.3125 0  0.21875 0.3125 0  0.25 0.3125 0  0.28125 0.3125 0  0.3125 0.3125 0  0.34375 0.3125 0  0.375 0.3125 0  0.40625 0.3125 0  0.4375 0.3125 0  0.46875 0.3125 0  0.5 0.3125 0  0.53125 0.3125 0  0.5625 0.3125 0  0.59375 0.3125 0  0.625 0.3125 0  0.65625 0.3125 0  0.6875 0.3125 0  0.71875 0.3125 0  0.75 0.3125 0  0.78125 0.3125 0  0.8125 0.3125 0  0.84375 0.3125 0  0.875 0.3125 0  0.90625 0.3125 0  0.9375 0.3125 0  0.96875 0.3125 0  1 0.3125 0  0 0.34375 0  0.03125 0.34375 0  0.0625 0.34375 0  0.09375 0.34375 0  0.125 0.34375 0  0.15625 0.34375 0  0.1875 0.34375 0  0.21875 0.34375 0  0.25 0.34375 0  0.28125 0.34375 0  0.3125 0.34375 0  0.34375 0.34375 0  0.375 0.34375 0  0.40625 0.34375 0  0.4375 0.34375 0  0.46875 0.34375 0  0.5 0.34375 0  0.53125 0.34375 0  0.5625 0.34375 0  0.59375 0.34375 0  0.625 0.34375 0  0.65625 0.34375 0  0.6875 0.34375 0  0.71875 0.34375 0  0.75 0.34375 0  0.78125 0.34375 0  0.8125 0.34375 0  0.84375 0.34375 0  0.875 0.34375 0  0.90625 0.34375 0  0.9375 0.34375 0  0.96875 0.34375 0  1 0.34375 0  0 0.375 0  0.03125 0.375 0  0.0625 0.375 0  0.09375 0.375 0  0.125 0.375 0  0.15625 0.375 0  0.1875 0.375 0  0.21875 0.375 0  0.25 0.375 0  0.28125 0.375 0  0.3125 0.375 0  0.34375 0.375 0  0.375 0.375 0  0.40625 0.375 0  0.4375 0.375 0  0.46875 0.375 0  0.5 0.375 0  0.53125 0.375 0  0.5625 0.375 0  0.59375 0.375 0  0.625 0.375 0  0.65625 0.375 0  0.6875 0.375 0  0.71875 0.375 0  0.75 0.375 0  0.78125 0.375 0  0.8125 0.375 0  0.84375 0.375 0  0.875 0.375 0  0.90625 0.375 0  0.9375 0.375 0  0.96875 0.375 0  1 0.375 0  0 0.40625 0  0.03125 0.40625 0  0.0625 0.40625 0  0.09375 0.40625 0  0.125 0.40625 0  0.15625 0.40625 0  0.1875 0.40625 0  0.21875 0.40625 0  0.25 0.40625 0  0.28125 0.40625 0  0.3125 0.40625 0  0.34375 0.40625 0  0.375 0.40625 0  0.40625 0.40625 0  0.4375 0.40625 0  0.46875 0.40625 0  0.5 0.40625 0  0.53125 0.40625 0  0.5625 0.40625 0  0.59375 0.40625 0  0.625 0.40625 0  0.65625 0.40625 0  0.6875 0.40625 0  0.71875 0.40625 0  0.75 0.40625 0  0.78125 0.40625 0  0.8125 0.40625 0  0.84375 0.40625 0  0.875 0.40625 0  0.90625 0.40625 0  0.9375 0.40625 0  0.96875 0.40625 0  1 0.40625 0  0 0.4375 0  0.03125 0.4375 0  0.0625 0.4375 0  0.09375 0.4375 0  0.125 0.4375 0  0.15625 0.4375 0  0.1875 0.4375 0  0.21875 0.4375 0  0.25 0.4375 0  0.28125 0.4375 0  0.3125 0.4375 0  0.34375 0.4375 0  0.375 0.4375 0  0.40625 0.4375 0  0.4375 0.4375 0  0.46875 0.4375 0  0.5 0.4375 0  0.53125 0.4375 0  0.5625 0.4375 0  0.59375 0.4375 0  0.625 0.4375 0  0.65625 0.4375 0  0.6875 0.4375 0  0.71875 0.4375 0  0.75 0.4375 0  0.78125 0.4375 0  0.8125 0.4375 0  0.84375 0.4375 0  0.875 0.4375 0  0.90625 0.4375 0  0.9375 0.4375 0  0.96875 0.4375 0  1 0.4375 0  0 0.46875 0  0.03125 0.46875 0  0.0625 0.46875 0  0.09375 0.46875 0  0.125 0.46875 0  0.15625 0.46875 0  0.1875 0.46875 0  0.21875 0.46875 0  0.25 0.46875 0  0.28125 0.46875 0  0.3125 0.46875 0  0.34375 0.46875 0  0.375 0.46875 0  0.40625 0.46875 0  0.4375 0.46875 0  0.46875 0.46875 0  0.5 0.46875 0  0.53125 0.46875 0  0.5625 0.46875 0  0.59375 0.46875 0  0.625 0.46875 0  0.65625 0.46875 0  0.6875 0.46875 0  0.71875 0.46875 0  0.75 0.46875 0  0.78125 0.46875 0  0.8125 0.46875 0  0.84375 0.46875 0  0.875 0.46875 0  0.90625 0.46875 0  0.9375 0.46875 0  0.96875 0.46875 0  1 0.46875 0  0 0.5 0  0.03125 0.5 0  0.0625 0.5 0  0.09375 0.5 0  0.125 0.5 0  0.15625 0.5 0  0.1875 0.5 0  0.21875 0.5 0  0.25 0.5 0  0.28125 0.5 0  0.3125 0.5 0  0.34375 0.5 0  0.375 0.5 0  0.40625 0.5 0  0.4375 0.5 0  0.46875 0.5 0  0.5 0.5 0  0.53125 0.5 0  0.5625 0.5 0  0.59375 0.5 0  0.625 0.5 0  0.65625 0.5 0  0.6875 0.5 0  0.71875 0.5 0  0.75 0.5 0  0.78125 0.5 0  0.8125 0.5 0  0.84375 0.5 0  0.875 0.5 0  0.90625 0.5 0  0.9375 0.5 0  0.96875 0.5 0  1 0.5 0  0 0.53125 0  0.03125 0.53125 0  0.0625 0.53125 0  0.09375 0.53125 0  0.125 0.53125 0  0.15625 0.53125 0  0.1875 0.53125 0  0.21875 0.53125 0  0.25 0.53125 0  0.28125 0.53125 0  0.3125 0.53125 0  0.34375 0.53125 0  0.375 0.53125 0  0.40625 0.53125 0  0.4375 0.53125 0  0.46875 0.53125 0  0.5 0.53125 0  0.53125 0.53125 0  0.5625 0.53125 0  0.59375 0.53125 0  0.625 0.53125 0  0.65625 0.53125 0  0.6875 0.53125 0  0.71875 0.53125 0  0.75 0.53125 0  0.78125 0.531
[...]
<PointData  Scalars="phi"> 
<DataArray  type="Float64"  Name="phi"  format="ascii">0.0000000000000000e+00  0.0000000000000000e+00  0.0000000000000000e+00  0.0000000000000000e+00  0.0000000000000000e+00  0.0000000000000000e+00  0.0000000000000000e+00  0.0000000000000000e+00  0.0000000000000000e+00  0.0000000000000000e+00  0.0000000000000000e+00  0.0000000000000000e+00  0.0000000000000000e+00  0.0000000000000000e+00  0.0000000000000000e+00  0.0000000000000000e+00  0.0000000000000000e+00  0.0000000000000000e+00  0.0000000000000000e+00  0.0000000000000000e+00  0.0000000000000000e+00  0.0000000000000000e+00  0.0000000000000000e+00  0.0000000000000000e+00  0.0000000000000000e+00  0.0000000000000000e+00  0.0000000000000000e+00  0.0000000000000000e+00  0.0000000000000000e+00  0.0000000000000000e+00  0.0000000000000000e+00  0.0000000000000000e+00  0.0000000000000000e+00  0.0000000000000000e+00  -1.2736941698944081e-04  -2.5118632219325832e-04  -3.6870195823417748e-04  -4.7726724155752986e-04  -5.7448056310147023e-04  -6.5828677836546464e-04  -7.2705000304287826e-04  -7.7960600888982352e-04  -8.1529528273720903e-04  -8.3397675137973572e-04  -8.3602226124127434e-04  -8.2229237256786552e-04  -7.9409462124160478e-04  -7.5312600851836788e-04  -7.0140204386247014e-04  -6.4117515326045458e-04  -5.7484565019933040e-04  -5.0486873130831946e-04  -4.3366109198521004e-04  -3.6351075342586152e-04  -2.9649355126492021e-04  -2.3439946293017384e-04  -1.7867155644782031e-04  -1.3035984325364224e-04  -9.0091731272488542e-05  -5.8060125486571258e-05  -3.4029537895422602e-05  -1.7359876623109061e-05  -7.0469185489102294e-06  -1.7778742832858405e-06  -1.9660894924845629e-17  0.0000000000000000e+00  0.0000000000000000e+00  -2.5118632219325778e-04  -4.9565127319592091e-04  -7.2773946897650870e-04  -9.4212996544835125e-04  -1.1340336258931672e-03  -1.2993631461726144e-03  -1.4348695054402019e-03  -1.5382433213017997e-03  -1.6081795232862055e-03  -1.6444042036723337e-03  -1.6476634309928774e-03  -1.6196749915975987e-03  -1.5630452911846952e-03  -1.4811548898613649e-03  -1.3780172827140397e-03  -1.2581165143346605e-03  -1.1262299853216503e-03  -9.8724333816647600e-04  -8.4596457696487198e-04  -7.0694456894217802e-04  -5.7431079580221630e-04  -4.5162068019535286e-04  -3.4174002829034282e-04  -2.4675113417520753e-04  -1.6789392465002765e-04  -1.0554223002419029e-04  -5.9215899586257951e-05  -2.7628095760022748e-05  -8.7657588614417012e-06  -7.7016063528629407e-17  1.7778742832079885e-06  0.0000000000000000e+00  0.0000000000000000e+00  -3.6870195823417509e-04  -7.2773946897650567e-04  -1.0686110658750356e-03  -1.3833773010317137e-03  -1.6649193206270962e-03  -1.9071747876338559e-03  -2.1053330137992144e-03  -2.2559820997982987e-03  -2.3572033876372626e-03  -2.4086105033793133e-03  -2.4113322213634341e-03  -2.3679403820644931e-03  -2.2823260863955516e-03  -2.1595292844851415e-03  -2.0055285935097348e-03  -1.8269996436159140e-03  -1.6310514024660244e-03  -1.4249507206188891e-03  -1.2158457400107117e-03  -1.0104988002395000e-03  -8.1503906233083151e-04  -6.3474426330329303e-04  -4.7385984856804464e-04  -3.3546224845120055e-04  -2.2137132772254858e-04  -1.3211511096767985e-04  -6.6947847749972741e-05  -2.3920410692673840e-05  -1.6668884507062942e-16  8.7657588612150453e-06  7.0469185487956199e-06  0.0000000000000000e+00  0.0000000000000000e+00  -4.7726724155752412e-04  -9.4212996544834192e-04  -1.3833773010317059e-03  -1.7905664833610842e-03  -2.1543529614232492e-03  -2.4667928781460739e-03  -2.7215947692917014e-03  -2.9143102125079230e-03  -3.0424563633373583e-03  -3.1055662170485394e-03  -3.1051652548422085e-03  -3.0446759180540323e-03  -2.9292540588140665e-03  -2.7655640571509058e-03  -2.5615015807148134e-03  -2.3258749069314339e-03  -2.0680572531862852e-03  -1.7976236092981735e-03  -1.5239860973975503e-03  -1.2560418769160813e-03  -1.0018470671906646e-03  -7.6832909853494702e-04  -5.6104836589552457e-04  -3.8401810715693303e-04  -2.3958913666406433e-04  -1.2840352265701155e-04  -4.9418603859844568e-05  -2.8004163084576091e-16  2.3920410692241630e-05  2.7628095759728781e-05  1.7359876622960360e-05  0.0000000000000000e+00  0.0000000000000000e+00  -5.7448056310145906e-04  -1.1340336258931476e-03  -1.6649193206270748e-03  -2.1543529614232331e-03  -2.5909089638675598e-03  -2.9648895372209267e-03  -3.2686311967674944e-03  -3.4967369201043962e-03  -3.6462251551931594e-03  -3.7165903558322166e-03  -3.7097732232484462e-03  -3.6300423137468332e-03  -3.4837920448466805e-03  -3.2792652904795458e-03  -3.0262115895281741e-03  -2.7354943973651024e-03  -2.4186626968733787e-03  -2.0875035822401130e-03  -1.7535930864066404e-03  -1.4278625167037980e-03  -1.1201968937034640e-03  -8.3908078203330906e-04  -5.9130490972656325e-04  -3.8174456808034323e-04  -2.1321796016101756e-04  -8.6429532283573916e-05  -4.0601192193687856e-16  4.9418603859169963e-05  6.6947847749451877e-05  5.9215899585903525e-05  3.4029537895243262e-05  0.0000000000000000e+00  0.0000000000000000e+00  -6.5828677836544589e-04  -1.2993631461725805e-03  -1.9071747876338141e-03  -2.4667928781460322e-03  -2.9648895372208985e-03  -3.3901703669702516e-03  -3.7337333015477515e-03  -3.9893400011178862e-03  -4.1535896061907166e-03  -4.2259885812711527e-03  -4.2089144508767849e-03  -4.1074753277930646e-03  -3.9292711171608641e-03  -3.6840660133567577e-03  -3.3833852559885889e-03  -3.0400519536750935e-03  -2.6676820136468707e-03  -2.2801567478814596e-03  -1.8910935048686928e-03  -1.5133346712768291e-03  -1.1584746008101716e-03  -8.3644248948337198e-04  -5.5515698730307546e-04  -3.2026550239911344e-04  -1.3497782461822531e-04  -5.3206886208684711e-16  8.6429532282643901e-05  1.2840352265623830e-04  1.3211511096708245e-04  1.0554223002378360e-04  5.8060125486365409e-05  0.0000000000000000e+00  0.0000000000000000e+00  -7.2705000304284899e-04  -1.4348695054401477e-03  -2.1053330137991433e-03  -2.7215947692916251e-03  -3.2686311967674258e-03  -3.7337333015477082e-03  -4.1069144509545772e-03  -4.3812182375876762e-03  -4.5529150051535020e-03  -4.6215799561182547e-03  -4.5900503471358444e-03  -4.4642639290440461e-03  -4.2529853288943743e-03  -3.9674313344250402e-03  -3.6208098687908483e-03  -3.2277906925451925e-03  -2.8039284190085985e-03  -2.3650601824123669e-03  -1.9267011897501681e-03  -1.5034613840721241e-03  -1.1085055501912455e-03  -7.5307743885981459e-04  -4.4610594074505241e-04  -1.9390810560398290e-04  -6.4530619156118327e-16  1.3497782461705253e-04  2.1321796015999145e-04  2.3958913666321038e-04  2.2137132772188841e-04  1.6789392464957795e-04  9.0091731272260806e-05  0.0000000000000000e+00  0.0000000000000000e+00  -7.7960600888978102e-04  -1.5382433213017197e-03  -2.2559820997981907e-03  -2.9143102125078002e-03  -3.4967369201042734e-03  -3.9893400011177830e-03  -4.3812182375876137e-03  -4.6648324537660636e-03  -4.8362225457248952e-03  -4.8950927004548332e-03  -4.8447620651491229e-03  -4.6919832825775103e-03  -4.4466363552260555e-03  -4.1213100463840802e-03  -3.7307872907945774e-03  -3.2914547095873078e-03  -2.8206591670268681e-03  -2.3360362626990423e-03  -1.8548366484393303e-03  -1.3932760575689380e-03  -9.6593393602055098e-04  -5.8522361007139700e-04  -2.6095408971283426e-04  -7.3362905604011175e-16  1.9390810560260534e-04  3.2026550239785961e-04  3.8174456807924472e-04  3.8401810715601791e-04  3.3546224845049241e-04  2.4675113417472496e-04  1.3035984325339772e-04  0.0000000000000000e+00  0.0000000000000000e+00  -8.1529528273715081e-04  -1.6081795232860950e-03  -2.3572033876371103e-03  -3.0424563633371787e-03  -3.6462251551929699e-03  -4.1535896061905388e-03  -4.5529150051533589e-03  -4.8362225457248128e-03  -4.9994243174696605e-03  -5.0424143776640878e-03  -4.9690129542289026e-03  -4.7867664432331893e-03  -4.5066113673182173e-03  -4.1424156411855786e-03  -3.7104151482444826e-03  -3.2285675907572668e-03  -2.7158486836025195e-03  -2.1915179009934162e-03  -1.6743820751720130e-03  -1.1820851455108920e-03  -7.3045126667333274e-04  -3.3290634838717176e-04  -7.8675355386543260e-16  2.6095408971131247e-04  4.4610594074362018e-04  5.5515698730176921e-04  5.9130490972541692e-04  5.6104836589456831e-04  4.7385984856730397e-04  3.4174002828983769e-04  1.7867155644756428e-04  0.0000000000000000e+00  0.0000000000000000e+00  -8.3397675137966004e-04  -1.6444042036721884e-03  -2.4086105033791099e-03  -3.1055662170482935e-03  -3.7165903558319486e-03  -4.2259885812708847e-03  -4.6215799561180135e-03  -4.8950927004546459e-03  -5.0424143776639811e-03  -5.0636874782002640e-03  -4.9632472688686848e-03  -4.7494047970605127e-03  -4.4340838468461610e-03  -4.0323262076261013e-03  -3.5616846216143722e-03  -3.0415270315991847e-03  -2.4922790923127386e-03  -1.9346342097735060e-03  -1.3887615456413950e-03  -8.7354242383159042e-04  -4.0586440530180338e-04  -7.9718404497299032e-16  3.3290634838558460e-04  5.8522361006985613e-04  7.5307743885836024e-04  8.3644248948204231e-04  8.3908078203213997e-04  7.6832909853397026e-04  6.3474426330253572e-04  4.5162068019483591e-04  2.3439946292991162e-04  0.0000000000000000e+00  0.0000000000000000e+00  -8.3602226124117893e-04  -1.6476634309926933e-03  -2.4113322213631743e-03  -3.1051652548418889e-03  -3.7097732232480880e-03  -4.2089144508764146e-03  -4.5900503471354888e-03  -4.8447620651488124e-03  -4.9690129542286693e-03  -4.9632472688685573e-03  -4.8323218450260722e-03  -4.5852738314125637e-03  -4.2349338207369391e-03  -3.7973996207146419e-03  -3.2913912095080115e-03  -2.7375119309167566e-03  -2.1574445279096124e-03  -1.5731130532758786e-03  -1.0058429401378858e-03  -4.7555151573178437e-04  -7.6083281556438902e-16  4.0586440530024056e-04  7.3045126667176823e-04  9.6593393601902551e-04  1.1085055501898005e-03  1.1584746008088463e-03  1.1201968937022961e-03  1.0018470671896871e-03  8.1503906233007257e-04  5.7431079580169794e-04  2.9649355126465696e-04  0.0000000000000000e+00  0.0000000000000000e+00  -8.2229237256774908e-04  -1.6196749915973730e-03  -2.3679403820641700e-03  -3.0446759180536315e-03  -3.6300423137463783e-03  -4.1074753277925823e-03  -4.4642639290435673e-03  -4.6919832825770662e-03  -4.7867664432328138e-03  -4.7494047970602377e-03  -4.5852738314124146e-03  -4.3040874882753202e-03  -3.9194909040951645e-03  -3.4485075094852170e-03  -2.9108620155509357e-03  -2.3282055362085722e-03  -1.7232728061713498e-03  -1.1190040098256852e-03  -5.3766503919066406e-04  -6.7734329460859116e-16  4.7555151573034070e-04  8.7354242383009487e-04  1.1820851455093845e-03  1.3932760575674601e-03  1.5034613840707179e-03  1.5133346712755355e-03  1.4278625167026542e-03  1.2560418769151220e-03  1.0104988002387540e-03  7.0694456894166769e-04  3.6351075342560245e-04  0.0000000000000000e+00  0.0000000000000000e+00  -7.9409462124146611e-04  -1.5630452911844258e-03  -2.2823260863951648e-03  -2.9292540588135808e-03  -3.4837920448461219e-03  -3.9292711171602622e-03  -4.2529853288937602e-03  -4.4466363552254666e-03  -4.5066113673176856e-03  -4.4340838468457213e-03  -4.2349338207366216e-03  -3.9194909040949945e-03  -3.5021103177667852e-03  -3.0005984338449931e-03  -2.4355101512617250e-03  -1.8293452929051340e-03  -1.2056750572587492e-03  -5.8823220372039911e-04  -5.5058133465541069e-16  5.3766503918943078e-04  1.0058429401365527e-03  1.3887615456399983e-03  1.6743820751705931e-03  1.8548366484379291e-03  1.9267011897488276e-03  1.8910935048674544e-03  1.7535930864055419e-03  1.5239860973966265e-03  1.2158457400099918e-03  8.4596457696437899e-04  4.3366109198495959e-04  0.0000000000000000e+00  0.0000000000000000e+00  -7.5312600851820699e-04  -1.4811548898610509e-03  -2.1595292844846879e-03  -2.7655640571503338e-03  -3.2792652904788818e-03  -3.6840660133560330e-03  -3.9674313344242890e-03  -4.1213100463833394e-03  -4.1424156411848838e-03  -4.0323262076254890e-03  -3.7973996207141449e-03  -3.4485075094848640e-03  -3.0005984338448075e-03  -2.4721072438383300e-03  -1.8842334841270136e-03  -1.2601167155949970e-03  -6.2394056189388702e-04  -3.8772658780725483e-16  5.8823220371945662e-04  1.1190040098246006e-03  1.5731130532746832e-03  1.9346342097722356e-03  2.1915179009921108e-03  2.3360362626977434e-03  2.3650601824111166e-03  2.2801567478802978e-03  2.0875035822390791e-03  1.7976236092973009e-03  1.4249507206182074e-03  9.8724333816600871e-04  5.0486873130808170e-04  0.0000000000000000e+00  0.0000000000000000e+00  -7.0140204386228712e-04  -1.3780172827136815e-03  -2.0055285935092161e-03  -2.5615015807141555e-03  -3.0262115895274061e-03  -3.3833852559877423e-03  -3.6208098687899584e-03  -3.7307872907936827e-03  -3.7104151482436221e-03  -3.5616846216135834e-03  -3.2913912095073302e-03  -2.9108620155503910e-03  -2.4355101512613438e-03  -1.8842334841268165e-03  -1.2786809337857969e-03  -6.4241460017797200e-04  -1.9898846627071025e-16  6.2394056189329743e-04  1.2056750572579850e-03  1.7232728061704341e-03  2.1574445279085759e-03  2.4922790923116163e-03  2.7158486836013499e-03  2.8206591670256916e-03  2.8039284190074566e-03  2.6676820136458026e-03  2.4186626968724229e-03  2.0680572531854759e-03  1.6310514024653908e-03  1.1262299853212155e-03  5.7484565019910879e-04  0.0000000000000000e+00  0.0000000000000000e+00  -6.4117515326025075e-04  -1.2581165143342608e-03  -1.8269996436153339e-03  -2.3258749069306954e-03  -2.7354943973642342e-03  -3.0400519536741299e-03  -3.2277906925441699e-03  -3.2914547095862657e-03  -3.2285675907562446e-03  -3.0415270315982219e-03  -2.7375119309158910e-03  -2.3282055362078358e-03  -1.8293452929045554e-03  -1.2601167155945987e-03  -6.4241460017776903e-04  3.2771728924589491e-18  6.4241460017777532e-04  1.2601167155946048e-03  1.8293452929045613e-03  2.3282055362078401e-03  2.7375119309158945e-03  3.0415270315982254e-03  3.2285675907562485e-03  3.2914547095862696e-03  3.2277906925441738e-03  3.0400519536741338e-03  2.7354943973642385e-03  2.3258749069306993e-03  1.8269996436153365e-03  1.2581165143342628e-03  6.4117515326025183e-04  0.0000000000000000e+00  0.0000000000000000e+00  -5.7484565019910771e-04  -1.1262299853212134e-03  -1.6310514024653884e-03  -2.0680572531854725e-03  -2.4186626968724194e-03  -2.6676820136457991e-03  -2.8039284190074527e-03  -2.8206591670256872e-03  -2.7158486836013455e-03  -2.4922790923116119e-03  -2.1574445279085716e-03  -1.7232728061704287e-03  -1.2056750572579781e-03  -6.2394056189329092e-04  2.0559630199760235e-16  6.4241460017797850e-04  1.2786809337858029e-03  1.8842334841268214e-03  2.4355101512613482e-03  2.9108620155503936e-03  3.2913912095073310e-03  3.5616846216135851e-03  3.7104151482436256e-03  3.7307872907936866e-03  3.6208098687899627e-03  3.3833852559877467e-03  3.0262115895274104e-03  2.5615015807141594e-03  2.0055285935092187e-03  1.3780172827136837e-03  7.0140204386228821e-04  0.0000000000000000e+00  0.0000000000000000e+00  -5.0486873130808072e-04  -9.8724333816600698e-04  -1.4249507206182048e-03  -1.7976236092972979e-03  -2.0875035822390756e-03  -2.2801567478802943e-03  -2.3650601824111127e-03  -2.3360362626977391e-03  -2.1915179009921060e-03  -1.9346342097722310e-03  -1.5731130532746778e-03  -1.1190040098245945e-03  -5.8823220371944979e-04  3.9462217954101508e-16  6.2394056189389374e-04  1.2601167155950038e-03  1.8842334841270190e-03  2.4721072438383344e-03  3.0005984338448105e-03  3.4485075094848648e-03  3.7973996207141471e-03  4.0323262076254925e-03  4.1424156411848864e-03  4.1213100463833429e-03  3.9674313344242934e-03  3.6840660133560374e-03  3.2792652904788861e-03  2.7655640571503373e-03  2.1595292844846905e-03  1.4811548898610526e-03  7.5312600851820807e-04  0.0000000000000000e+00  0.0000000000000000e+00  -4.3366109198495861e-04  -8.4596457696437726e-04  -1.2158457400099896e-03  -1.5239860973966237e-03  -1.7535930864055389e-03  -1.8910935048674507e-03  -1.9267011897488237e-03  -1.8548366484379248e-03  -1.6743820751705888e-03  -1.3887615456399938e-03  -1.0058429401365468e-03  -5.3766503918942438e-04  5.5753818585959887e-16  5.8823220372040638e-04  1.2056750572587561e-03  1.8293452929051407e-03  2.4355101512617298e-03  3.0005984338449974e-03  3.5021103177667878e-03  3.9194909040949953e-03  4.2349338207366242e-03  4.4340838468457256e-03  4.5066113673176908e-03  4.4466363552254709e-03  4.2529853288937654e-03  3.9292711171602674e-03  3.4837920448461254e-03  2.9292540588135843e-03  2.2823260863951669e-03  1.5630452911844274e-03  7.9409462124146698e-04  0.0000000000000000e+00  0.0000000000000000e+00  -3.6351075342560158e-04  -7.0694456894166617e-04  -1.0104988002387516e-03  -1.2560418769151194e-03  -1.4278625167026509e-03  -1.5133346712755318e-03  -1.5034613840707140e-03  -1.3932760575674557e-03  -1.1820851455093798e-03  -8.7354242383008945e-04  -4.7555151573033463e-04  6.8401396331122444e-16  5.3766503919067110e-04  1.1190040098256922e-03  1.7232728061713559e-03  2.3282055362085774e-03  2.9108620155509392e-03  3.4485075094852205e-03  3.9194909040951662e-03  4.3040874882753228e-03  4.5852738314124172e-03  4.7494047970602421e-03  4.7867664432328198e-03  4.6919832825770731e-03  4.4642639290435725e-03  4.1074753277925875e-03  3.6300423137463822e-03  3.0446759180536341e-03  2.3679403820641726e-03  1.6196749915973747e-03  8.2229237256775006e-04  0.0000000000000000e+00  0.0000000000000000e+00  -2.9649355126465615e-04  -5.7431079580169632e-04  -8.1503906233007018e-04  -1.0018470671896843e-03  -1.1201968937022927e-03  -1.1584746008088426e-03  -1.1085055501897961e-03  -9.6593393601902063e-04  -7.3045126667176292e-04  -4.0586440530023476e-04  7.6710379016852237e-16  4.7555151573179120e-04  1.0058429401378929e-03  1.5731130532758853e-03  2.1574445279096185e-03  2.7375119309167618e-03  3.2913912095080154e-03  3.7973996207146471e-03  4.2349338207369434e-03  4.5852738314125698e-03  4.8323218450260774e-03  4.9632472688685633e-03  4.9690129542286762e-03  4.8447620651488211e-03  4.5900503471354957e-03  4.2089144508764189e-03  3.7097732232480914e-03  3.1051652548418911e-03  2.4113322213631756e-03  1.6476634309926950e-03  8.3602226124118001e-04  0.0000000000000000e+00  0.0000000000000000e+00  -2.3439946292991087e-04  -4.5162068019483434e-04  -6.3474426330253344e-04  -7.6832909853396733e-04  -8.3908078203213661e-04  -8.3644248948203819e-04  -7.5307743885835569e-04  -5.8522361006985114e-04  -3.3290634838557901e-04  8.0308101216053229e-16  4.0586440530180983e-04  8.7354242383159736e-04  1.3887615456414019e-03  1.9346342097735130e-03  2.4922790923127447e-03  3.0415270315991899e-03  3.5616846216143761e-03  4.0323262076261066e-03  4.4340838468461662e-03  4.7494047970605205e-03  4.9632472688686926e-03  5.0636874782002709e-03  5.0424143776639872e-03  4.8950927004546528e-03  4.6215799561180196e-03  4.2259885812708890e-03  3.7165903558319521e-03  3.1055662170482957e-03  2.4086105033791117e-03  1.6444042036721899e-03  8.3397675137966091e-04  0.0000000000000000e+00  0.0000000000000000e+00  -1.7867155644756349e-04  -3.4174002828983623e-04  -4.7385984856730180e-04  -5.6104836589456549e-04  -5.9130490972541367e-04  -5.5515698730176531e-04  -4.4610594074361574e-04  -2.6095408971130748e-04  7.9224874510492376e-16  3.3290634838717783e-04  7.3045126667333935e-04  1.1820851455108992e-03  1.6743820751720197e-03  2.1915179009934231e-03  2.7158486836025252e-03  3.2285675907572720e-03  3.7104151482444878e-03  4.1424156411855838e-03  4.5066113673182216e-03  4.7867664432331963e-03  4.9690129542289078e-03  5.0424143776640947e-03  4.9994243174696675e-03  4.8362225457248189e-03  4.5529150051533632e-03  4.1535896061905414e-03  3.6462251551929725e-03  3.0424563633371800e-03  2.3572033876371112e-03  1.6081795232860958e-03  8.1529528273715157e-04  0.0000000000000000e+00  0.0000000000000000e+00  -1.3035984325339699e-04  -2.4675113417472349e-04  -3.3546224845049035e-04  -3.8401810715601526e-04  -3.8174456807924147e-04  -3.2026550239785587e-04  -1.9390810560260106e-04  7.3844001057589885e-16  2.6095408971283952e-04  5.8522361007140263e-04  9.6593393602055716e-04  1.3932760575689446e-03  1.8548366484393373e-03  2.3360362626990488e-03  2.8206591670268738e-03  3.2914547095873126e-03  3.7307872907945817e-03  4.1213100463840854