<?xml version="1.0"?>
<VTKFile type="UnstructuredGrid"  version="0.1"  >
<UnstructuredGrid>
<Piece  NumberOfPoints="1089" NumberOfCells="2048">
<Points>
<DataArray  type="Float64"  NumberOfComponents="3"  format="ascii">0 0 0  0.03125 0 0  0.0625 0 0  0.09375 0 0  0.125 0 0  0.15625 0 0  0.1875 0 0  0.21875 0 0  0.25 0 0  0.28125 0 0  0.3125 0 0  0.34375 0 0  0.375 0 0  0.40625 0 0  0.4375 0 0  0.46875 0 0  0.5 0 0  0.53125 0 0  0.5625 0 0  0.59375 0 0  0.625 0 0  0.65625 0 0  0.6875 0 0  0.71875 0 0  0.75 0 0  0.78125 0 0  0.8125 0 0  0.84375 0 0  0.875 0 0  0.90625 0 0  0.9375 0 0  0.96875 0 0  1 0 0  0 0.03125 0  0.03125 0.03125 0  0.0625 0.03125 0  0.09375 0.03125 0  0.125 0.03125 0  0.15625 0.03125 0  0.1875 0.03125 0  0.21875 0.03125 0  0.25 0.03125 0  0.28125 0.03125 0  0.3125 0.03125 0  0.34375 0.03125 0  0.375 0.03125 0  0.40625 0.03125 0  0.4375 0.03125 0  0.46875 0.03125 0  0.5 0.03125 0  0.53125 0.03125 0  0.5625 0.03125 0  0.59375 0.03125 0  0.625 0.03125 0  0.65625 0.03125 0  0.6875 0.03125 0  0.71875 0.03125 0  0.75 0.03125 0  0.78125 0.03125 0  0.8125 0.03125 0  0.84375 0.03125 0  0.875 0.03125 0  0.90625 0.03125 0  0.9375 0.03125 0  0.96875 0.03125 0  1 0.03125 0  0 0.0625 0  0.03125 0.0625 0  0.0625 0.0625 0  0.09375 0.0625 0  0.125 0.0625 0  0.15625 0.0625 0  0.1875 0.0625 0  0.21875 0.0625 0  0.25 0.0625 0  0.28125 0.0625 0  0.3125 0.0625 0  0.34375 0.0625 0  0.375 0.0625 0  0.40625 0.0625 0  0.4375 0.0625 0  0.46875 0.0625 0  0.5 0.0625 0  0.53125 0.0625 0  0.5625 0.0625 0  0.59375 0.0625 0  0.625 0.0625 0  0.65625 0.0625 0  0.6875 0.0625 0  0.71875 0.0625 0  0.75 0.0625 0  0.78125 0.0625 0  0.8125 0.0625 0  0.84375 0.0625 0  0.875 0.0625 0  0.90625 0.0625 0  0.9375 0.0625 0  0.96875 0.0625 0  1 0.0625 0  0 0.09375 0  0.03125 0.09375 0  0.0625 0.09375 0  0.09375 0.09375 0  0.125 0.09375 0  0.15625 0.09375 0  0.1875 0.09375 0  0.21875 0.09375 0  0.25 0.09375 0  0.28125 0.09375 0  0.3125 0.09375 0  0.34375 0.09375 0  0.375 0.09375 0  0.40625 0.09375 0  0.4375 0.09375 0  0.46875 0.09375 0  0.5 0.09375 0  0.53125 0.09375 0  0.5625 0.09375 0  0.59375 0.09375 0  0.625 0.09375 0  0.65625 0.09375 0  0.6875 0.09375 0  0.71875 0.09375 0  0.75 0.09375 0  0.78125 0.09375 0  0.8125 0.09375 0  0.84375 0.09375 0  0.875 0.09375 0  0.90625 0.09375 0  0.9375 0.09375 0  0.96875 0.09375 0  1 0.09375 0  0 0.125 0  0.03125 0.125 0  0.0625 0.125 0  0.09375 0.125 0  0.125 0.125 0  0.15625 0.125 0  0.1875 0.125 0  0.21875 0.125 0  0.25 0.125 0  0.28125 0.125 0  0.3125 0.125 0  0.34375 0.125 0  0.375 0.125 0  0.40625 0.125 0  0.4375 0.125 0  0.46875 0.125 0  0.5 0.125 0  0.53125 0.125 0  0.5625 0.125 0  0.59375 0.125 0  0.625 0.125 0  0.65625 0.125 0  0.6875 0.125 0  0.71875 0.125 0  0.75 0.125 0  0.78125 0.125 0  0.8125 0.125 0  0.84375 0.125 0  0.875 0.125 0  0.90625 0.125 0  0.9375 0.125 0  0.96875 0.125 0  1 0.125 0  0 0.15625 0  0.03125 0.15625 0  0.0625 0.15625 0  0.09375 0.15625 0  0.125 0.15625 0  0.15625 0.15625 0  0.1875 0.15625 0  0.21875 0.15625 0  0.25 0.15625 0  0.28125 0.15625 0  0.3125 0.15625 0  0.34375 0.15625 0  0.375 0.15625 0  0.40625 0.15625 0  0.4375 0.15625 0  0.46875 0.15625 0  0.5 0.15625 0  0.53125 0.15625 0  0.5625 0.15625 0  0.59375 0.15625 0  0.625 0.15625 0  0.65625 0.15625 0  0.6875 0.15625 0  0.71875 0.15625 0  0.75 0.15625 0  0.78125 0.15625 0  0.8125 0.15625 0  0.84375 0.15625 0  0.875 0.15625 0  0.90625 0.15625 0  0.9375 0.15625 0  0.96875 0.15625 0  1 0.15625 0  0 0.1875 0  0.03125 0.1875 0  0.0625 0.1875 0  0.09375 0.1875 0  0.125 0.1875 0  0.15625 0.1875 0  0.1875 0.1875 0  0.21875 0.1875 0  0.25 0.1875 0  0.28125 0.1875 0  0.3125 0.1875 0  0.34375 0.1875 0  0.375 0.1875 0  0.40625 0.1875 0  0.4375 0.1875 0  0.46875 0.1875 0  0.5 0.1875 0  0.53125 0.1875 0  0.5625 0.1875 0  0.59375 0.1875 0  0.625 0.1875 0  0.65625 0.1875 0  0.6875 0.1875 0  0.71875 0.1875 0  0.75 0.1875 0  0.78125 0.1875 0  0.8125 0.1875 0  0.84375 0.1875 0  0.875 0.1875 0  0.90625 0.1875 0  0.9375 0.1875 0  0.96875 0.1875 0  1 0.1875 0  0 0.21875 0  0.03125 0.21875 0  0.0625 0.21875 0  0.09375 0.21875 0  0.125 0.21875 0  0.15625 0.21875 0  0.1875 0.21875 0  0.21875 0.21875 0  0.25 0.21875 0  0.28125 0.21875 0  0.3125 0.21875 0  0.34375 0.21875 0  0.375 0.21875 0  0.40625 0.21875 0  0.4375 0.21875 0  0.46875 0.21875 0  0.5 0.21875 0  0.53125 0.21875 0  0.5625 0.21875 0  0.59375 0.21875 0  0.625 0.21875 0  0.65625 0.21875 0  0.6875 0.21875 0  0.71875 0.21875 0  0.75 0.21875 0  0.78125 0.21875 0  0.8125 0.21875 0  0.84375 0.21875 0  0.875 0.21875 0  0.90625 0.21875 0  0.9375 0.21875 0  0.96875 0.21875 0  1 0.21875 0  0 0.25 0  0.03125 0.25 0  0.0625 0.25 0  0.09375 0.25 0  0.125 0.25 0  0.15625 0.25 0  0.1875 0.25 0  0.21875 0.25 0  0.25 0.25 0  0.28125 0.25 0  0.3125 0.25 0  0.34375 0.25 0  0.375 0.25 0  0.40625 0.25 0  0.4375 0.25 0  0.46875 0.25 0  0.5 0.25 0  0.53125 0.25 0  0.5625 0.25 0  0.59375 0.25 0  0.625 0.25 0  0.65625 0.25 0  0.6875 0.25 0  0.71875 0.25 0  0.75 0.25 0  0.78125 0.25 0  0.8125 0.25 0  0.84375 0.25 0  0.875 0.25 0  0.90625 0.25 0  0.9375 0.25 0  0.96875 0.25 0  1 0.25 0  0 0.28125 0  0.03125 0.28125 0  0.0625 0.28125 0  0.09375 0.28125 0  0.125 0.28125 0  0.15625 0.28125 0  0.1875 0.28125 0  0.21875 0.28125 0  0.25 0.28125 0  0.28125 0.28125 0  0.3125 0.28125 0  0.34375 0.28125 0  0.375 0.28125 0  0.40625 0.28125 0  0.4375 0.28125 0  0.46875 0.28125 0  0.5 0.28125 0  0.53125 0.28125 0  0.5625 0.28125 0  0.59375 0.28125 0  0.625 0.28125 0  0.65625 0.28125 0  0.6875 0.28125 0  0.71875 0.28125 0  0.75 0.28125 0  0.78125 0.28125 0  0.8125 0.28125 0  0.84375 0.28125 0  0.875 0.28125 0  0.90625 0.28125 0  0.9375 0.28125 0  0.96875 0.28125 0  1 0.28125 0  0 0.3125 0  0.03125 0.3125 0  0.0625 0.3125 0  0.09375 0.3125 0  0.125 0.3125 0  0.15625 0.3125 0  0.1875 0.3125 0  0.21875 0.3125 0  0.25 0.3125 0  0.28125 0.3125 0  0.3125 0.3125 0  0.34375 0.3125 0  0.375 0.3125 0  0.40625 0.3125 0  0.4375 0.3125 0  0.46875 0.3125 0  0.5 0.3125 0  0.53125 0.3125 0  0.5625 0.3125 0  0.59375 0.3125 0  0.625 0.3125 0  0.65625 0.3125 0  0.6875 0.3125 0  0.71875 0.3125 0  0.75 0.3125 0  0.78125 0.3125 0  0.8125 0.3125 0  0.84375 0.3125 0  0.875 0.3125 0  0.90625 0.3125 0  0.9375 0.3125 0  0.96875 0.3125 0  1 0.3125 0  0 0.34375 0  0.03125 0.34375 0  0.0625 0.34375 0  0.09375 0.34375 0  0.125 0.34375 0  0.15625 0.34375 0  0.1875 0.34375 0  0.21875 0.34375 0  0.25 0.34375 0  0.28125 0.34375 0  0.3125 0.34375 0  0.34375 0.34375 0  0.375 0.34375 0  0.40625 0.34375 0  0.4375 0.34375 0  0.46875 0.34375 0  0.5 0.34375 0  0.53125 0.34375 0  0.5625 0.34375 0  0.59375 0.34375 0  0.625 0.34375 0  0.65625 0.34375 0  0.6875 0.34375 0  0.71875 0.34375 0  0.75 0.34375 0  0.78125 0.34375 0  0.8125 0.34375 0  0.84375 0.34375 0  0.875 0.34375 0  0.90625 0.34375 0  0.9375 0.34375 0  0.96875 0.34375 0  1 0.34375 0  0 0.375 0  0.03125 0.375 0  0.0625 0.375 0  0.09375 0.375 0  0.125 0.375 0  0.15625 0.375 0  0.1875 0.375 0  0.21875 0.375 0  0.25 0.375 0  0.28125 0.375 0  0.3125 0.375 0  0.34375 0.375 0  0.375 0.375 0  0.40625 0.375 0  0.4375 0.375 0  0.46875 0.375 0  0.5 0.375 0  0.53125 0.375 0  0.5625 0.375 0  0.59375 0.375 0  0.625 0.375 0  0.65625 0.375 0  0.6875 0.375 0  0.71875 0.375 0  0.75 0.375 0  0.78125 0.375 0  0.8125 0.375 0  0.84375 0.375 0  0.875 0.375 0  0.90625 0.375 0  0.9375 0.375 0  0.96875 0.375 0  1 0.375 0  0 0.40625 0  0.03125 0.40625 0  0.0625 0.40625 0  0.09375 0.40625 0  0.125 0.40625 0  0.15625 0.40625 0  0.1875 0.40625 0  0.21875 0.40625 0  0.25 0.40625 0  0.28125 0.40625 0  0.3125 0.40625 0  0.34375 0.40625 0  0.375 0.40625 0  0.40625 0.40625 0  0.4375 0.40625 0  0.46875 0.40625 0  0.5 0.40625 0  0.53125 0.40625 0  0.5625 0.40625 0  0.59375 0.40625 0  0.625 0.40625 0  0.65625 0.40625 0  0.6875 0.40625 0  0.71875 0.40625 0  0.75 0.40625 0  0.78125 0.40625 0  0.8125 0.40625 0  0.84375 0.40625 0  0.875 0.40625 0  0.90625 0.40625 0  0.9375 0.40625 0  0.96875 0.40625 0  1 0.40625 0  0 0.4375 0  0.03125 0.4375 0  0.0625 0.4375 0  0.09375 0.4375 0  0.125 0.4375 0  0.15625 0.4375 0  0.1875 0.4375 0  0.21875 0.4375 0  0.25 0.4375 0  0.28125 0.4375 0  0.3125 0.4375 0  0.34375 0.4375 0  0.375 0.4375 0  0.40625 0.4375 0  0.4375 0.4375 0  0.46875 0.4375 0  0.5 0.4375 0  0.53125 0.4375 0  0.5625 0.4375 0  0.59375 0.4375 0  0.625 0.4375 0  0.65625 0.4375 0  0.6875 0.4375 0  0.71875 0.4375 0  0.75 0.4375 0  0.78125 0.4375 0  0.8125 0.4375 0  0.84375 0.4375 0  0.875 0.4375 0  0.90625 0.4375 0  0.9375 0.4375 0  0.96875 0.4375 0  1 0.4375 0  0 0.46875 0  0.03125 0.46875 0  0.0625 0.46875 0  0.09375 0.46875 0  0.125 0.46875 0  0.15625 0.46875 0  0.1875 0.46875 0  0.21875 0.46875 0  0.25 0.46875 0  0.28125 0.46875 0  0.3125 0.46875 0  0.34375 0.46875 0  0.375 0.46875 0  0.40625 0.46875 0  0.4375 0.46875 0  0.46875 0.46875 0  0.5 0.46875 0  0.53125 0.46875 0  0.5625 0.46875 0  0.59375 0.46875 0  0.625 0.46875 0  0.65625 0.46875 0  0.6875 0.46875 0  0.71875 0.46875 0  0.75 0.46875 0  0.78125 0.46875 0  0.8125 0.46875 0  0.84375 0.46875 0  0.875 0.46875 0  0.90625 0.46875 0  0.9375 0.46875 0  0.96875 0.46875 0  1 0.46875 0  0 0.5 0  0.03125 0.5 0  0.0625 0.5 0  0.09375 0.5 0  0.125 0.5 0  0.15625 0.5 0  0.1875 0.5 0  0.21875 0.5 0  0.25 0.5 0  0.28125 0.5 0  0.3125 0.5 0  0.34375 0.5 0  0.375 0.5 0  0.40625 0.5 0  0.4375 0.5 0  0.46875 0.5 0  0.5 0.5 0  0.53125 0.5 0  0.5625 0.5 0  0.59375 0.5 0  0.625 0.5 0  0.65625 0.5 0  0.6875 0.5 0  0.71875 0.5 0  0.75 0.5 0  0.78125 0.5 0  0.8125 0.5 0  0.84375 0.5 0  0.875 0.5 0  0.90625 0.5 0  0.9375 0.5 0  0.96875 0.5 0  1 0.5 0  0 0.53125 0  0.03125 0.53125 0  0.0625 0.53125 0  0.09375 0.53125 0  0.125 0.53125 0  0.15625 0.53125 0  0.1875 0.53125 0  0.21875 0.53125 0  0.25 0.53125 0  0.28125 0.53125 0  0.3125 0.53125 0  0.34375 0.53125 0  0.375 0.53125 0  0.40625 0.53125 0  0.4375 0.53125 0  0.46875 0.53125 0  0.5 0.53125 0  0.53125 0.53125 0  0.5625 0.53125 0  0.59375 0.53125 0  0.625 0.53125 0  0.65625 0.53125 0  0.6875 0.53125 0  0.71875 0.53125 0  0.75 0.53125 0  0.78125 0.531
[...]
<PointData  Scalars="phi"> 
<DataArray  type="Float64"  Name="phi"  format="ascii">0.0000000000000000e+00  0.0000000000000000e+00  0.0000000000000000e+00  0.0000000000000000e+00  0.0000000000000000e+00  0.0000000000000000e+00  0.0000000000000000e+00  0.0000000000000000e+00  0.0000000000000000e+00  0.0000000000000000e+00  0.0000000000000000e+00  0.0000000000000000e+00  0.0000000000000000e+00  0.0000000000000000e+00  0.0000000000000000e+00  0.0000000000000000e+00  0.0000000000000000e+00  0.0000000000000000e+00  0.0000000000000000e+00  0.0000000000000000e+00  0.0000000000000000e+00  0.0000000000000000e+00  0.0000000000000000e+00  0.0000000000000000e+00  0.0000000000000000e+00  0.0000000000000000e+00  0.0000000000000000e+00  0.0000000000000000e+00  0.0000000000000000e+00  0.0000000000000000e+00  0.0000000000000000e+00  0.0000000000000000e+00  0.0000000000000000e+00  0.0000000000000000e+00  -1.0945039440529235e-02  -2.1584056955210859e-02  -3.1681236452400043e-02  -4.1009113429935913e-02  -4.9361427183514661e-02  -5.6561658290122357e-02  -6.2469296562314092e-02  -6.6984348853580455e-02  -7.0050182214408480e-02  -7.1654704320421619e-02  -7.1829889569545224e-02  -7.0649699321012463e-02  -6.8226495558766281e-02  -6.4706099349753909e-02  -6.0261693956226797e-02  -5.5086814295319364e-02  -4.9387697483694523e-02  -4.3375291944899794e-02  -3.7257234001960550e-02  -3.1230100534146609e-02  -2.5472234137259409e-02  -2.0137413756232875e-02  -1.5349609871328919e-02  -1.1199020341959472e-02  -7.7395326390996182e-03  -4.9877024367928381e-03  -2.9232796623268145e-03  -1.4912536580587317e-03  -6.0533198290286389e-04  -1.5271630353206418e-04  -1.6802359060143675e-15  0.0000000000000000e+00  0.0000000000000000e+00  -2.1584056955210811e-02  -4.2589340976808623e-02  -6.2530533809919159e-02  -8.0950666238493951e-02  -9.7438396000800592e-02  -1.1164264580757632e-01  -1.2328434244728101e-01  -1.3216513303870406e-01  -1.3817294566839439e-01  -1.4128429819407884e-01  -1.4156333773320634e-01  -1.3915769432362673e-01  -1.3429134084425925e-01  -1.2725475784668772e-01  -1.1839279969146357e-01  -1.0809074223624796e-01  -9.6759058413702359e-02  -8.4817513499331393e-02  -7.2679194794303126e-02  -6.0735089879322454e-02  -4.9339803527859119e-02  -3.8798956728049880e-02  -2.9358743868780811e-02  -2.1198038630831403e-02  -1.4423338844408126e-02  -9.0667294939653573e-03  -5.0869256232959521e-03  -2.3733379604146728e-03  -7.5298883256645264e-04  -6.5817815684672645e-15  1.5271630352541089e-04  0.0000000000000000e+00  0.0000000000000000e+00  -3.1681236452399841e-02  -6.2530533809918909e-02  -9.1818241371914966e-02  -1.1886241113397421e-01  -1.4305155256030233e-01  -1.6386491845478679e-01  -1.8088928128034909e-01  -1.9383158181075361e-01  -2.0252704795290419e-01  -2.0694255093731356e-01  -2.0717513355553813e-01  -2.0344581680185969e-01  -1.9608896215092669e-01  -1.8553762943598545e-01  -1.7230551770783403e-01  -1.5696620223128405e-01  -1.4013047967612660e-01  -1.2242270155186281e-01  -1.0445701028477188e-01  -8.6814391667067226e-02  -7.0021421733530348e-02  -5.4531516827045476e-02  -4.0709395400021164e-02  -2.8819332870679899e-02  -1.9017641579169860e-02  -1.1349642414305236e-02  -5.7512195227255904e-03  -2.0548716252976286e-03  -1.4244361494075031e-14  7.5298883254708337e-04  6.0533198289306942e-04  0.0000000000000000e+00  0.0000000000000000e+00  -4.1009113429935413e-02  -8.0950666238493174e-02  -1.1886241113397353e-01  -1.5384729850382289e-01  -1.8510260692894231e-01  -2.1194593810747417e-01  -2.3383684825135453e-01  -2.5039323245070638e-01  -2.6140185516460790e-01  -2.6682266969910085e-01  -2.6678681182942277e-01  -2.6158839195069583e-01  -2.5167044246277148e-01  -2.3760559539480830e-01  -2.2007226164924459e-01  -1.9982725019793812e-01  -1.7767589662285671e-01  -1.5444086046420918e-01  -1.3093079642473338e-01  -1.0791010382084334e-01  -8.6070911810130518e-02  -6.6008366694615281e-02  -4.8200155554433952e-02  -3.2991032743358420e-02  -2.0582918895827772e-02  -1.1030923708714082e-02  -4.2454123602579993e-03  -2.3930764481119873e-14  2.0548716252606946e-03  2.3733379603895514e-03  1.4912536580460240e-03  0.0000000000000000e+00  0.0000000000000000e+00  -4.9361427183513676e-02  -9.7438396000798941e-02  -1.4305155256030047e-01  -1.8510260692894095e-01  -2.2261002582106193e-01  -2.5474071136804949e-01  -2.8083633831442578e-01  -3.0043330227324161e-01  -3.1327552324022001e-01  -3.1931964692223541e-01  -3.1873248756942119e-01  -3.1188085514202396e-01  -2.9931419939161813e-01  -2.8174077475148029e-01  -2.5999827336643710e-01  -2.3502008022770821e-01  -2.0779846646206512e-01  -1.7934614821754225e-01  -1.5065769506285048e-01  -1.2267227124964777e-01  -9.6239135645498936e-02  -7.2087213895594943e-02  -5.0799893786627234e-02  -3.2795988179625472e-02  -1.8317567257337009e-02  -7.4250925842274836e-03  -3.4693215368396980e-14  4.2454123602003544e-03  5.7512195226810826e-03  5.0869256232656673e-03  2.9232796623114895e-03  0.0000000000000000e+00  0.0000000000000000e+00  -5.6561658290120720e-02  -1.1164264580757341e-01  -1.6386491845478315e-01  -2.1194593810747067e-01  -2.5474071136804710e-01  -2.9127895146303828e-01  -3.2079590983846551e-01  -3.4275569387555060e-01  -3.5686619533001956e-01  -3.6308509058560912e-01  -3.6161672400795397e-01  -3.5290003774700918e-01  -3.3758805363303729e-01  -3.1651973357215435e-01  -2.9068533260326124e-01  -2.6118660296662777e-01  -2.2919339905477482e-01  -1.9589836477768163e-01  -1.6247145172893640e-01  -1.3001601610349178e-01  -9.9528174682490339e-02  -7.1860968036204731e-02  -4.7694687551122272e-02  -2.7514479390350892e-02  -1.1596052467958844e-02  -4.5460444060710961e-14  7.4250925841480193e-03  1.1030923708648013e-02  1.1349642414254194e-02  9.0667294939306073e-03  4.9877024367752480e-03  0.0000000000000000e+00  0.0000000000000000e+00  -6.2469296562311580e-02  -1.2328434244727635e-01  -1.8088928128034301e-01  -2.3383684825134804e-01  -2.8083633831442001e-01  -3.2079590983846185e-01  -3.5285761899347423e-01  -3.7642386963349905e-01  -3.9117429728356179e-01  -3.9707247874807383e-01  -3.9436225304970296e-01  -3.8355383906555018e-01  -3.6540032538506784e-01  -3.4086547418708091e-01  -3.1108410977162748e-01  -2.7731664153281876e-01  -2.4089949015866657e-01  -2.0319333646043058e-01  -1.6553118881346468e-01  -1.2916826489676797e-01  -9.5235606351444263e-02  -6.4699194182944370e-02  -3.8326114079953760e-02  -1.6659042787517730e-02  -5.5129564819062436e-14  1.1596052467858650e-02  1.8317567257249340e-02  2.0582918895754816e-02  1.9017641579113457e-02  1.4423338844369707e-02  7.7395326390801624e-03  0.0000000000000000e+00  0.0000000000000000e+00  -6.6984348853576819e-02  -1.3216513303869726e-01  -1.9383158181074439e-01  -2.5039323245069578e-01  -3.0043330227323112e-01  -3.4275569387554178e-01  -3.7642386963349378e-01  -4.0079015118260919e-01  -4.1551436440302220e-01  -4.2057115953847179e-01  -4.1624577107533406e-01  -4.0311842498353506e-01  -3.8203803455876001e-01  -3.5408623384227755e-01  -3.2053316398686993e-01  -2.8278673913345331e-01  -2.4233736259875430e-01  -2.0070023222164482e-01  -1.5935745924481437e-01  -1.1970222494088896e-01  -8.2987113429808523e-02  -5.0278591160042775e-02  -2.2419359875564052e-02  -6.2669270331555302e-14  1.6659042787400054e-02  2.7514479390243776e-02  3.2795988179531624e-02  3.2991032743280232e-02  2.8819332870619399e-02  2.1198038630790176e-02  1.1199020341938582e-02  0.0000000000000000e+00  0.0000000000000000e+00  -7.0050182214403525e-02  -1.3817294566838489e-01  -2.0252704795289117e-01  -2.6140185516459247e-01  -3.1327552324020375e-01  -3.5686619533000441e-01  -3.9117429728354958e-01  -4.1551436440301509e-01  -4.2953522924038462e-01  -4.3322784425409799e-01  -4.2692048589195969e-01  -4.1126156895605215e-01  -3.8719077292802218e-01  -3.5589962698215966e-01  -3.1878310061774040e-01  -2.7738408692164324e-01  -2.3333293247655093e-01  -1.8828435171403557e-01  -1.4385415711986271e-01  -1.0155823663201301e-01  -6.2756115924104627e-02  -2.8601259722665161e-02  -6.7191828598403201e-14  2.2419359875434069e-02  3.8326114079831414e-02  4.7694687551010688e-02  5.0799893786529306e-02  4.8200155554352267e-02  4.0709395399957896e-02  2.9358743868737665e-02  1.5349609871307049e-02  0.0000000000000000e+00  0.0000000000000000e+00  -7.1654704320415152e-02  -1.4128429819406640e-01  -2.0694255093729605e-01  -2.6682266969907975e-01  -3.1931964692221243e-01  -3.6308509058558625e-01  -3.9707247874805318e-01  -4.2057115953845581e-01  -4.3322784425408889e-01  -4.3505481751989455e-01  -4.2642459537992616e-01  -4.0805127958890181e-01  -3.8095936394461738e-01  -3.4644122654138632e-01  -3.0600497189605397e-01  -2.6131465249053526e-01  -2.1412518639539835e-01  -1.6621448532808797e-01  -1.1931540824044226e-01  -7.5050155533705892e-02  -3.4869618346502415e-02  -6.8068729001351643e-14  2.8601259722529603e-02  5.0278591159911179e-02  6.4699194182820136e-02  7.1860968036091127e-02  7.2087213895495078e-02  6.6008366694531848e-02  5.4531516826980792e-02  3.8798956728005721e-02  2.0137413756210483e-02  0.0000000000000000e+00  0.0000000000000000e+00  -7.1829889569537064e-02  -1.4156333773319058e-01  -2.0717513355551581e-01  -2.6678681182939534e-01  -3.1873248756939054e-01  -3.6161672400792239e-01  -3.9436225304967260e-01  -4.1624577107530758e-01  -4.2692048589193976e-01  -4.2642459537991517e-01  -4.1517541522481821e-01  -3.9394942103150588e-01  -3.6384900773678375e-01  -3.2625727571900898e-01  -2.8278260878754391e-01  -2.3519519677897505e-01  -1.8535795991196222e-01  -1.3515454169986452e-01  -8.6417144088314926e-02  -4.0856978530243032e-02  -6.4955630103476664e-14  3.4869618346368966e-02  6.2756115923971026e-02  8.2987113429678239e-02  9.5235606351320834e-02  9.9528174682377124e-02  9.6239135645399168e-02  8.6070911810047016e-02  7.0021421733465539e-02  4.9339803527814849e-02  2.5472234137236933e-02  0.0000000000000000e+00  0.0000000000000000e+00  -7.0649699321002513e-02  -1.3915769432360742e-01  -2.0344581680183210e-01  -2.6158839195066164e-01  -3.1188085514198516e-01  -3.5290003774696788e-01  -3.8355383906550922e-01  -4.0311842498349709e-01  -4.1126156895602006e-01  -4.0805127958887816e-01  -3.9394942103149300e-01  -3.6979060580789280e-01  -3.3674720236931338e-01  -2.9628182978140283e-01  -2.5008918909428202e-01  -2.0002948670181994e-01  -1.4805602377364158e-01  -9.6139745404304061e-02  -4.6193655064228581e-02  -5.7825880021513135e-14  4.0856978530119784e-02  7.5050155533578189e-02  1.0155823663188429e-01  1.1970222494076278e-01  1.2916826489664790e-01  1.3001601610338126e-01  1.2267227124955006e-01  1.0791010382076141e-01  8.6814391667003526e-02  6.0735089879278899e-02  3.1230100534124484e-02  0.0000000000000000e+00  0.0000000000000000e+00  -6.8226495558754444e-02  -1.3429134084423616e-01  -1.9608896215089358e-01  -2.5167044246273002e-01  -2.9931419939157050e-01  -3.3758805363298588e-01  -3.6540032538501543e-01  -3.8203803455870955e-01  -3.8719077292797666e-01  -3.8095936394457974e-01  -3.6384900773675655e-01  -3.3674720236929884e-01  -3.0088731484205061e-01  -2.5779922405383893e-01  -2.0924895188979301e-01  -1.5716961866800161e-01  -1.0358638923785365e-01  -5.0538303370518997e-02  -4.6990795161075602e-14  4.6193655064123311e-02  8.6417144088201114e-02  1.1931540824032305e-01  1.4385415711974153e-01  1.5935745924469469e-01  1.6553118881335024e-01  1.6247145172883065e-01  1.5065769506275661e-01  1.3093079642465449e-01  1.0445701028471044e-01  7.2679194794261048e-02  3.7257234001939171e-02  0.0000000000000000e+00  0.0000000000000000e+00  -6.4706099349740115e-02  -1.2725475784666082e-01  -1.8553762943594665e-01  -2.3760559539475945e-01  -2.8174077475142367e-01  -3.1651973357209251e-01  -3.4086547418701674e-01  -3.5408623384221405e-01  -3.5589962698210009e-01  -3.4644122654133391e-01  -3.2625727571896651e-01  -2.9628182978137263e-01  -2.5779922405382305e-01  -2.1239332640827582e-01  -1.6188553856473081e-01  -1.0826394089694213e-01  -5.3606313597417007e-02  -3.3083380736456818e-14  5.0538303370438568e-02  9.6139745404211496e-02  1.3515454169976249e-01  1.6621448532797958e-01  1.8828435171392421e-01  2.0070023222153399e-01  2.0319333646032389e-01  1.9589836477758249e-01  1.7934614821745398e-01  1.5444086046413474e-01  1.2242270155180468e-01  8.4817513499291522e-02  4.3375291944879518e-02  0.0000000000000000e+00  0.0000000000000000e+00  -6.0261693956211129e-02  -1.1839279969143292e-01  -1.7230551770778968e-01  -2.2007226164918842e-01  -2.5999827336637155e-01  -2.9068533260318896e-01  -3.1108410977155149e-01  -3.2053316398679343e-01  -3.1878310061766690e-01  -3.0600497189598652e-01  -2.8278260878748557e-01  -2.5008918909423550e-01  -2.0924895188976045e-01  -1.6188553856471399e-01  -1.0985895401119103e-01  -5.5193578020903286e-02  -1.6980156157457105e-14  5.3606313597366707e-02  1.0358638923778846e-01  1.4805602377356350e-01  1.8535795991187382e-01  2.1412518639530259e-01  2.3333293247645118e-01  2.4233736259865393e-01  2.4089949015856915e-01  2.2919339905468369e-01  2.0779846646198363e-01  1.7767589662278777e-01  1.4013047967607262e-01  9.6759058413665278e-02  4.9387697483675629e-02  0.0000000000000000e+00  0.0000000000000000e+00  -5.5086814295301934e-02  -1.0809074223621380e-01  -1.5696620223123448e-01  -1.9982725019787506e-01  -2.3502008022763413e-01  -2.6118660296654550e-01  -2.7731664153273139e-01  -2.8278673913336416e-01  -2.7738408692155592e-01  -2.6131465249045305e-01  -2.3519519677890111e-01  -2.0002948670175708e-01  -1.5716961866795220e-01  -1.0826394089690812e-01  -5.5193578020885939e-02  2.7901300193956962e-16  5.5193578020886508e-02  1.0826394089690866e-01  1.5716961866795273e-01  2.0002948670175758e-01  2.3519519677890161e-01  2.6131465249045360e-01  2.7738408692155647e-01  2.8278673913336477e-01  2.7731664153273194e-01  2.6118660296654594e-01  2.3502008022763454e-01  1.9982725019787545e-01  1.5696620223123484e-01  1.0809074223621405e-01  5.5086814295302072e-02  0.0000000000000000e+00  0.0000000000000000e+00  -4.9387697483675497e-02  -9.6759058413665028e-02  -1.4013047967607228e-01  -1.7767589662278740e-01  -2.0779846646198324e-01  -2.2919339905468328e-01  -2.4089949015856865e-01  -2.4233736259865341e-01  -2.3333293247645065e-01  -2.1412518639530206e-01  -1.8535795991187332e-01  -1.4805602377356297e-01  -1.0358638923778787e-01  -5.3606313597366111e-02  1.7557874666931037e-14  5.5193578020903855e-02  1.0985895401119156e-01  1.6188553856471447e-01  2.0924895188976089e-01  2.5008918909423589e-01  2.8278260878748601e-01  3.0600497189598708e-01  3.1878310061766757e-01  3.2053316398679410e-01  3.1108410977155204e-01  2.9068533260318957e-01  2.5999827336637210e-01  2.2007226164918886e-01  1.7230551770779004e-01  1.1839279969143321e-01  6.0261693956211282e-02  0.0000000000000000e+00  0.0000000000000000e+00  -4.3375291944879393e-02  -8.4817513499291314e-02  -1.2242270155180439e-01  -1.5444086046413441e-01  -1.7934614821745362e-01  -1.9589836477758210e-01  -2.0319333646032345e-01  -2.0070023222153352e-01  -1.8828435171392374e-01  -1.6621448532797906e-01  -1.3515454169976193e-01  -9.6139745404210927e-02  -5.0538303370437944e-02  3.3706050577741854e-14  5.3606313597417625e-02  1.0826394089694275e-01  1.6188553856473131e-01  2.1239332640827627e-01  2.5779922405382338e-01  2.9628182978137285e-01  3.2625727571896695e-01  3.4644122654133458e-01  3.5589962698210098e-01  3.5408623384221488e-01  3.4086547418701740e-01  3.1651973357209318e-01  2.8174077475142423e-01  2.3760559539475992e-01  1.8553762943594704e-01  1.2725475784666113e-01  6.4706099349740268e-02  0.0000000000000000e+00  0.0000000000000000e+00  -3.7257234001939074e-02  -7.2679194794260868e-02  -1.0445701028471019e-01  -1.3093079642465419e-01  -1.5065769506275639e-01  -1.6247145172883029e-01  -1.6553118881334991e-01  -1.5935745924469433e-01  -1.4385415711974109e-01  -1.1931540824032257e-01  -8.6417144088200559e-02  -4.6193655064122707e-02  4.7610253180183906e-14  5.0538303370519636e-02  1.0358638923785432e-01  1.5716961866800222e-01  2.0924895188979353e-01  2.5779922405383937e-01  3.0088731484205095e-01  3.3674720236929911e-01  3.6384900773675699e-01  3.8095936394458041e-01  3.8719077292797754e-01  3.8203803455871038e-01  3.6540032538501621e-01  3.3758805363298655e-01  2.9931419939157100e-01  2.5167044246273046e-01  1.9608896215089394e-01  1.3429134084423641e-01  6.8226495558754569e-02  0.0000000000000000e+00  0.0000000000000000e+00  -3.1230100534124401e-02  -6.0735089879278739e-02  -8.6814391667003291e-02  -1.0791010382076113e-01  -1.2267227124954977e-01  -1.3001601610338093e-01  -1.2916826489664751e-01  -1.1970222494076235e-01  -1.0155823663188382e-01  -7.5050155533577689e-02  -4.0856978530119228e-02  5.8415660735038646e-14  4.6193655064229198e-02  9.6139745404304700e-02  1.4805602377364219e-01  2.0002948670182047e-01  2.5008918909428246e-01  2.9628182978140316e-01  3.3674720236931371e-01  3.6979060580789325e-01  3.9394942103149355e-01  4.0805127958887888e-01  4.1126156895602101e-01  4.0311842498349804e-01  3.8355383906551005e-01  3.5290003774696865e-01  3.1188085514198571e-01  2.6158839195066208e-01  2.0344581680183246e-01  1.3915769432360767e-01  7.0649699321002637e-02  0.0000000000000000e+00  0.0000000000000000e+00  -2.5472234137236857e-02  -4.9339803527814689e-02  -7.0021421733465344e-02  -8.6070911810046752e-02  -9.6239135645398849e-02  -9.9528174682376777e-02  -9.5235606351320432e-02  -8.2987113429677795e-02  -6.2756115923970540e-02  -3.4869618346368453e-02  6.5510466533042548e-14  4.0856978530243615e-02  8.6417144088315523e-02  1.3515454169986507e-01  1.8535795991196280e-01  2.3519519677897557e-01  2.8278260878754435e-01  3.2625727571900953e-01  3.6384900773678430e-01  3.9394942103150654e-01  4.1517541522481893e-01  4.2642459537991595e-01  4.2692048589194070e-01  4.1624577107530863e-01  3.9436225304967354e-01  3.6161672400792305e-01  3.1873248756939104e-01  2.6678681182939568e-01  2.0717513355551612e-01  1.4156333773319082e-01  7.1829889569537203e-02  0.0000000000000000e+00  0.0000000000000000e+00  -2.0137413756210407e-02  -3.8798956728005582e-02  -5.4531516826980569e-02  -6.6008366694531584e-02  -7.2087213895494745e-02  -7.1860968036090794e-02  -6.4699194182819747e-02  -5.0278591159910742e-02  -2.8601259722529124e-02  6.8591732723642295e-14  3.4869618346502970e-02  7.5050155533706475e-02  1.1931540824044286e-01  1.6621448532808852e-01  2.1412518639539890e-01  2.6131465249053576e-01  3.0600497189605447e-01  3.4644122654138693e-01  3.8095936394461805e-01  4.0805127958890264e-01  4.2642459537992694e-01  4.3505481751989539e-01  4.3322784425408967e-01  4.2057115953845670e-01  3.9707247874805396e-01  3.6308509058558680e-01  3.1931964692221293e-01  2.6682266969908014e-01  2.0694255093729641e-01  1.4128429819406663e-01  7.1654704320415277e-02  0.0000000000000000e+00  0.0000000000000000e+00  -1.5349609871306978e-02  -2.9358743868737526e-02  -4.0709395399957701e-02  -4.8200155554352010e-02  -5.0799893786529007e-02  -4.7694687551010348e-02  -3.8326114079831046e-02  -2.2419359875433642e-02  6.7662059414538126e-14  2.8601259722665671e-02  6.2756115924105182e-02  1.0155823663201359e-01  1.4385415711986332e-01  1.8828435171403610e-01  2.3333293247655151e-01  2.7738408692164374e-01  3.1878310061774101e-01  3.5589962698216032e-01  3.8719077292802295e-01  4.1126156895605304e-01  4.2692048589196047e-01  4.3322784425409877e-01  4.2953522924038534e-01  4.1551436440301570e-01  3.9117429728355013e-01  3.5686619533000474e-01  3.1327552324020413e-01  2.6140185516459274e-01  2.0252704795289134e-01  1.3817294566838512e-01  7.0050182214403650e-02  0.0000000000000000e+00  0.0000000000000000e+00  -1.1199020341938516e-02  -2.1198038630790048e-02  -2.8819332870619215e-02  -3.2991032743279997e-02  -3.2795988179531346e-02  -2.7514479390243457e-02  -1.6659042787399693e-02  6.3069847944311108e-14  2.2419359875564492e-02  5.0278591160043254e-02  8.2987113429809023e-02  1.1970222494088950e-01  1.5935745924481490e-01  2.0070023222164535e-01  2.4233736259875482e-01  2.8278673913345376e-01  3.2053316398687037e-01  3.5408623384227811