<?xml version="1.0"?>
<VTKFile type="UnstructuredGrid"  version="0.1"  >
<UnstructuredGrid>
<Piece  NumberOfPoints="1089" NumberOfCells="2048">
<Points>
<DataArray  type="Float64"  NumberOfComponents="3"  format="ascii">0 0 0  0.03125 0 0  0.0625 0 0  0.09375 0 0  0.125 0 0  0.15625 0 0  0.1875 0 0  0.21875 0 0  0.25 0 0  0.28125 0 0  0.3125 0 0  0.34375 0 0  0.375 0 0  0.40625 0 0  0.4375 0 0  0.46875 0 0  0.5 0 0  0.53125 0 0  0.5625 0 0  0.59375 0 0  0.625 0 0  0.65625 0 0  0.6875 0 0  0.71875 0 0  0.75 0 0  0.78125 0 0  0.8125 0 0  0.84375 0 0  0.875 0 0  0.90625 0 0  0.9375 0 0  0.96875 0 0  1 0 0  0 0.03125 0  0.03125 0.03125 0  0.0625 0.03125 0  0.09375 0.03125 0  0.125 0.03125 0  0.15625 0.03125 0  0.1875 0.03125 0  0.21875 0.03125 0  0.25 0.03125 0  0.28125 0.03125 0  0.3125 0.03125 0  0.34375 0.03125 0  0.375 0.03125 0  0.40625 0.03125 0  0.4375 0.03125 0  0.46875 0.03125 0  0.5 0.03125 0  0.53125 0.03125 0  0.5625 0.03125 0  0.59375 0.03125 0  0.625 0.03125 0  0.65625 0.03125 0  0.6875 0.03125 0  0.71875 0.03125 0  0.75 0.03125 0  0.78125 0.03125 0  0.8125 0.03125 0  0.84375 0.03125 0  0.875 0.03125 0  0.90625 0.03125 0  0.9375 0.03125 0  0.96875 0.03125 0  1 0.03125 0  0 0.0625 0  0.03125 0.0625 0  0.0625 0.0625 0  0.09375 0.0625 0  0.125 0.0625 0  0.15625 0.0625 0  0.1875 0.0625 0  0.21875 0.0625 0  0.25 0.0625 0  0.28125 0.0625 0  0.3125 0.0625 0  0.34375 0.0625 0  0.375 0.0625 0  0.40625 0.0625 0  0.4375 0.0625 0  0.46875 0.0625 0  0.5 0.0625 0  0.53125 0.0625 0  0.5625 0.0625 0  0.59375 0.0625 0  0.625 0.0625 0  0.65625 0.0625 0  0.6875 0.0625 0  0.71875 0.0625 0  0.75 0.0625 0  0.78125 0.0625 0  0.8125 0.0625 0  0.84375 0.0625 0  0.875 0.0625 0  0.90625 0.0625 0  0.9375 0.0625 0  0.96875 0.0625 0  1 0.0625 0  0 0.09375 0  0.03125 0.09375 0  0.0625 0.09375 0  0.09375 0.09375 0  0.125 0.09375 0  0.15625 0.09375 0  0.1875 0.09375 0  0.21875 0.09375 0  0.25 0.09375 0  0.28125 0.09375 0  0.3125 0.09375 0  0.34375 0.09375 0  0.375 0.09375 0  0.40625 0.09375 0  0.4375 0.09375 0  0.46875 0.09375 0  0.5 0.09375 0  0.53125 0.09375 0  0.5625 0.09375 0  0.59375 0.09375 0  0.625 0.09375 0  0.65625 0.09375 0  0.6875 0.09375 0  0.71875 0.09375 0  0.75 0.09375 0  0.78125 0.09375 0  0.8125 0.09375 0  0.84375 0.09375 0  0.875 0.09375 0  0.90625 0.09375 0  0.9375 0.09375 0  0.96875 0.09375 0  1 0.09375 0  0 0.125 0  0.03125 0.125 0  0.0625 0.125 0  0.09375 0.125 0  0.125 0.125 0  0.15625 0.125 0  0.1875 0.125 0  0.21875 0.125 0  0.25 0.125 0  0.28125 0.125 0  0.3125 0.125 0  0.34375 0.125 0  0.375 0.125 0  0.40625 0.125 0  0.4375 0.125 0  0.46875 0.125 0  0.5 0.125 0  0.53125 0.125 0  0.5625 0.125 0  0.59375 0.125 0  0.625 0.125 0  0.65625 0.125 0  0.6875 0.125 0  0.71875 0.125 0  0.75 0.125 0  0.78125 0.125 0  0.8125 0.125 0  0.84375 0.125 0  0.875 0.125 0  0.90625 0.125 0  0.9375 0.125 0  0.96875 0.125 0  1 0.125 0  0 0.15625 0  0.03125 0.15625 0  0.0625 0.15625 0  0.09375 0.15625 0  0.125 0.15625 0  0.15625 0.15625 0  0.1875 0.15625 0  0.21875 0.15625 0  0.25 0.15625 0  0.28125 0.15625 0  0.3125 0.15625 0  0.34375 0.15625 0  0.375 0.15625 0  0.40625 0.15625 0  0.4375 0.15625 0  0.46875 0.15625 0  0.5 0.15625 0  0.53125 0.15625 0  0.5625 0.15625 0  0.59375 0.15625 0  0.625 0.15625 0  0.65625 0.15625 0  0.6875 0.15625 0  0.71875 0.15625 0  0.75 0.15625 0  0.78125 0.15625 0  0.8125 0.15625 0  0.84375 0.15625 0  0.875 0.15625 0  0.90625 0.15625 0  0.9375 0.15625 0  0.96875 0.15625 0  1 0.15625 0  0 0.1875 0  0.03125 0.1875 0  0.0625 0.1875 0  0.09375 0.1875 0  0.125 0.1875 0  0.15625 0.1875 0  0.1875 0.1875 0  0.21875 0.1875 0  0.25 0.1875 0  0.28125 0.1875 0  0.3125 0.1875 0  0.34375 0.1875 0  0.375 0.1875 0  0.40625 0.1875 0  0.4375 0.1875 0  0.46875 0.1875 0  0.5 0.1875 0  0.53125 0.1875 0  0.5625 0.1875 0  0.59375 0.1875 0  0.625 0.1875 0  0.65625 0.1875 0  0.6875 0.1875 0  0.71875 0.1875 0  0.75 0.1875 0  0.78125 0.1875 0  0.8125 0.1875 0  0.84375 0.1875 0  0.875 0.1875 0  0.90625 0.1875 0  0.9375 0.1875 0  0.96875 0.1875 0  1 0.1875 0  0 0.21875 0  0.03125 0.21875 0  0.0625 0.21875 0  0.09375 0.21875 0  0.125 0.21875 0  0.15625 0.21875 0  0.1875 0.21875 0  0.21875 0.21875 0  0.25 0.21875 0  0.28125 0.21875 0  0.3125 0.21875 0  0.34375 0.21875 0  0.375 0.21875 0  0.40625 0.21875 0  0.4375 0.21875 0  0.46875 0.21875 0  0.5 0.21875 0  0.53125 0.21875 0  0.5625 0.21875 0  0.59375 0.21875 0  0.625 0.21875 0  0.65625 0.21875 0  0.6875 0.21875 0  0.71875 0.21875 0  0.75 0.21875 0  0.78125 0.21875 0  0.8125 0.21875 0  0.84375 0.21875 0  0.875 0.21875 0  0.90625 0.21875 0  0.9375 0.21875 0  0.96875 0.21875 0  1 0.21875 0  0 0.25 0  0.03125 0.25 0  0.0625 0.25 0  0.09375 0.25 0  0.125 0.25 0  0.15625 0.25 0  0.1875 0.25 0  0.21875 0.25 0  0.25 0.25 0  0.28125 0.25 0  0.3125 0.25 0  0.34375 0.25 0  0.375 0.25 0  0.40625 0.25 0  0.4375 0.25 0  0.46875 0.25 0  0.5 0.25 0  0.53125 0.25 0  0.5625 0.25 0  0.59375 0.25 0  0.625 0.25 0  0.65625 0.25 0  0.6875 0.25 0  0.71875 0.25 0  0.75 0.25 0  0.78125 0.25 0  0.8125 0.25 0  0.84375 0.25 0  0.875 0.25 0  0.90625 0.25 0  0.9375 0.25 0  0.96875 0.25 0  1 0.25 0  0 0.28125 0  0.03125 0.28125 0  0.0625 0.28125 0  0.09375 0.28125 0  0.125 0.28125 0  0.15625 0.28125 0  0.1875 0.28125 0  0.21875 0.28125 0  0.25 0.28125 0  0.28125 0.28125 0  0.3125 0.28125 0  0.34375 0.28125 0  0.375 0.28125 0  0.40625 0.28125 0  0.4375 0.28125 0  0.46875 0.28125 0  0.5 0.28125 0  0.53125 0.28125 0  0.5625 0.28125 0  0.59375 0.28125 0  0.625 0.28125 0  0.65625 0.28125 0  0.6875 0.28125 0  0.71875 0.28125 0  0.75 0.28125 0  0.78125 0.28125 0  0.8125 0.28125 0  0.84375 0.28125 0  0.875 0.28125 0  0.90625 0.28125 0  0.9375 0.28125 0  0.96875 0.28125 0  1 0.28125 0  0 0.3125 0  0.03125 0.3125 0  0.0625 0.3125 0  0.09375 0.3125 0  0.125 0.3125 0  0.15625 0.3125 0  0.1875 0.3125 0  0.21875 0.3125 0  0.25 0.3125 0  0.28125 0.3125 0  0.3125 0.3125 0  0.34375 0.3125 0  0.375 0.3125 0  0.40625 0.3125 0  0.4375 0.3125 0  0.46875 0.3125 0  0.5 0.3125 0  0.53125 0.3125 0  0.5625 0.3125 0  0.59375 0.3125 0  0.625 0.3125 0  0.65625 0.3125 0  0.6875 0.3125 0  0.71875 0.3125 0  0.75 0.3125 0  0.78125 0.3125 0  0.8125 0.3125 0  0.84375 0.3125 0  0.875 0.3125 0  0.90625 0.3125 0  0.9375 0.3125 0  0.96875 0.3125 0  1 0.3125 0  0 0.34375 0  0.03125 0.34375 0  0.0625 0.34375 0  0.09375 0.34375 0  0.125 0.34375 0  0.15625 0.34375 0  0.1875 0.34375 0  0.21875 0.34375 0  0.25 0.34375 0  0.28125 0.34375 0  0.3125 0.34375 0  0.34375 0.34375 0  0.375 0.34375 0  0.40625 0.34375 0  0.4375 0.34375 0  0.46875 0.34375 0  0.5 0.34375 0  0.53125 0.34375 0  0.5625 0.34375 0  0.59375 0.34375 0  0.625 0.34375 0  0.65625 0.34375 0  0.6875 0.34375 0  0.71875 0.34375 0  0.75 0.34375 0  0.78125 0.34375 0  0.8125 0.34375 0  0.84375 0.34375 0  0.875 0.34375 0  0.90625 0.34375 0  0.9375 0.34375 0  0.96875 0.34375 0  1 0.34375 0  0 0.375 0  0.03125 0.375 0  0.0625 0.375 0  0.09375 0.375 0  0.125 0.375 0  0.15625 0.375 0  0.1875 0.375 0  0.21875 0.375 0  0.25 0.375 0  0.28125 0.375 0  0.3125 0.375 0  0.34375 0.375 0  0.375 0.375 0  0.40625 0.375 0  0.4375 0.375 0  0.46875 0.375 0  0.5 0.375 0  0.53125 0.375 0  0.5625 0.375 0  0.59375 0.375 0  0.625 0.375 0  0.65625 0.375 0  0.6875 0.375 0  0.71875 0.375 0  0.75 0.375 0  0.78125 0.375 0  0.8125 0.375 0  0.84375 0.375 0  0.875 0.375 0  0.90625 0.375 0  0.9375 0.375 0  0.96875 0.375 0  1 0.375 0  0 0.40625 0  0.03125 0.40625 0  0.0625 0.40625 0  0.09375 0.40625 0  0.125 0.40625 0  0.15625 0.40625 0  0.1875 0.40625 0  0.21875 0.40625 0  0.25 0.40625 0  0.28125 0.40625 0  0.3125 0.40625 0  0.34375 0.40625 0  0.375 0.40625 0  0.40625 0.40625 0  0.4375 0.40625 0  0.46875 0.40625 0  0.5 0.40625 0  0.53125 0.40625 0  0.5625 0.40625 0  0.59375 0.40625 0  0.625 0.40625 0  0.65625 0.40625 0  0.6875 0.40625 0  0.71875 0.40625 0  0.75 0.40625 0  0.78125 0.40625 0  0.8125 0.40625 0  0.84375 0.40625 0  0.875 0.40625 0  0.90625 0.40625 0  0.9375 0.40625 0  0.96875 0.40625 0  1 0.40625 0  0 0.4375 0  0.03125 0.4375 0  0.0625 0.4375 0  0.09375 0.4375 0  0.125 0.4375 0  0.15625 0.4375 0  0.1875 0.4375 0  0.21875 0.4375 0  0.25 0.4375 0  0.28125 0.4375 0  0.3125 0.4375 0  0.34375 0.4375 0  0.375 0.4375 0  0.40625 0.4375 0  0.4375 0.4375 0  0.46875 0.4375 0  0.5 0.4375 0  0.53125 0.4375 0  0.5625 0.4375 0  0.59375 0.4375 0  0.625 0.4375 0  0.65625 0.4375 0  0.6875 0.4375 0  0.71875 0.4375 0  0.75 0.4375 0  0.78125 0.4375 0  0.8125 0.4375 0  0.84375 0.4375 0  0.875 0.4375 0  0.90625 0.4375 0  0.9375 0.4375 0  0.96875 0.4375 0  1 0.4375 0  0 0.46875 0  0.03125 0.46875 0  0.0625 0.46875 0  0.09375 0.46875 0  0.125 0.46875 0  0.15625 0.46875 0  0.1875 0.46875 0  0.21875 0.46875 0  0.25 0.46875 0  0.28125 0.46875 0  0.3125 0.46875 0  0.34375 0.46875 0  0.375 0.46875 0  0.40625 0.46875 0  0.4375 0.46875 0  0.46875 0.46875 0  0.5 0.46875 0  0.53125 0.46875 0  0.5625 0.46875 0  0.59375 0.46875 0  0.625 0.46875 0  0.65625 0.46875 0  0.6875 0.46875 0  0.71875 0.46875 0  0.75 0.46875 0  0.78125 0.46875 0  0.8125 0.46875 0  0.84375 0.46875 0  0.875 0.46875 0  0.90625 0.46875 0  0.9375 0.46875 0  0.96875 0.46875 0  1 0.46875 0  0 0.5 0  0.03125 0.5 0  0.0625 0.5 0  0.09375 0.5 0  0.125 0.5 0  0.15625 0.5 0  0.1875 0.5 0  0.21875 0.5 0  0.25 0.5 0  0.28125 0.5 0  0.3125 0.5 0  0.34375 0.5 0  0.375 0.5 0  0.40625 0.5 0  0.4375 0.5 0  0.46875 0.5 0  0.5 0.5 0  0.53125 0.5 0  0.5625 0.5 0  0.59375 0.5 0  0.625 0.5 0  0.65625 0.5 0  0.6875 0.5 0  0.71875 0.5 0  0.75 0.5 0  0.78125 0.5 0  0.8125 0.5 0  0.84375 0.5 0  0.875 0.5 0  0.90625 0.5 0  0.9375 0.5 0  0.96875 0.5 0  1 0.5 0  0 0.53125 0  0.03125 0.53125 0  0.0625 0.53125 0  0.09375 0.53125 0  0.125 0.53125 0  0.15625 0.53125 0  0.1875 0.53125 0  0.21875 0.53125 0  0.25 0.53125 0  0.28125 0.53125 0  0.3125 0.53125 0  0.34375 0.53125 0  0.375 0.53125 0  0.40625 0.53125 0  0.4375 0.53125 0  0.46875 0.53125 0  0.5 0.53125 0  0.53125 0.53125 0  0.5625 0.53125 0  0.59375 0.53125 0  0.625 0.53125 0  0.65625 0.53125 0  0.6875 0.53125 0  0.71875 0.53125 0  0.75 0.53125 0  0.78125 0.531
[...]
<PointData  Scalars="theta_dt"> 
<DataArray  type="Float64"  Name="theta_dt"  format="ascii">-3.8129879236732121e-06  -1.8898822483951221e-06  4.0802836230120517e-06  1.5552396603069765e-05  1.1649922874237167e-05  -1.0627342279138786e-16  -1.0739809492281728e-05  -1.3813024076264065e-05  -3.9084832902289539e-06  6.5643858887266906e-06  2.3435604272072462e-05  2.5347498771190639e-05  1.6210445544588496e-05  9.5005539026161301e-06  -1.1377161829016695e-05  -9.2338599769409650e-06  -2.1306940574510034e-05  -2.3435604272213012e-05  -1.4934489753481452e-05  -6.4169193188867363e-06  -3.5769567688607131e-06  9.1743393042595417e-06  5.4350920994006052e-06  9.6886849455917127e-06  4.2545308293046169e-05  2.3492979255813050e-05  4.2302674805705505e-05  5.2303826353942702e-05  4.5520847512196989e-05  2.9771518440172848e-05  3.1014169161071969e-05  4.0786667732430267e-05  4.8034141684940657e-05  2.6774326781602097e-06  -4.0452972748756806e-06  -2.0231501390650124e-06  4.0983137728584507e-06  1.4778226831170829e-05  1.0739809492094333e-05  -9.7048207536427498e-17  -9.8075250907710006e-06  -1.2733925253432399e-05  -3.7139261621866983e-06  6.5933929069045013e-06  2.5088201173580789e-05  2.6891815488687100e-05  1.7243861623131107e-05  8.6758448409250193e-06  -1.1841276467568002e-05  -1.0084472991991491e-05  -1.9399824153368243e-05  -2.5088201173731232e-05  -1.5385288689077261e-05  -6.5643858887574302e-06  -3.8049878015072216e-06  9.5485930271242358e-06  5.2057034037381788e-06  9.8910452360782828e-06  4.0427480895942870e-05  2.4202116977778145e-05  4.4054643741414906e-05  5.3505815264856177e-05  4.1964675258134138e-05  2.8515008033728407e-05  3.3728976643662799e-05  4.4543890659828398e-05  4.2565448569745918e-06  2.9433322995124912e-06  -4.2128336113802523e-06  -2.1385161852018811e-06  4.0398600075159603e-06  1.3813024076140629e-05  9.8075250905998678e-06  -8.8361731428425623e-17  -8.9296847417090791e-06  -1.1628538803858004e-05  -3.4713604061813613e-06  6.4993521225352170e-06  2.6518805120463319e-05  2.8005542352943325e-05  1.8753293145223802e-05  7.8992975883738753e-06  -1.2113399637080712e-05  -1.0874645149758516e-05  -1.7769456203758620e-05  -2.6518805120622304e-05  -1.6366101009169228e-05  -6.5933929069353799e-06  -4.1380552230799482e-06  9.7680282717994814e-06  5.1666760893339571e-06  3.4143652655947503e-05  3.7787061555688155e-05  2.5745002196497773e-05  4.4974780019440057e-05  5.3742249286608610e-05  3.8321872079387092e-05  2.8301230164061027e-05  3.7078648958976638e-05  1.2669067533961994e-06  4.3850290517822950e-06  3.2376777443850858e-06  -4.3008239050225677e-06  -2.2257538180357341e-06  3.9084832902030737e-06  1.2733925253318590e-05  8.9296847415532589e-06  -8.0935780875780790e-17  -8.1792309392464985e-06  -1.0587705314452539e-05  -3.2001713524844437e-06  6.2879924355830360e-06  2.7600600900312944e-05  2.8590473096135061e-05  2.0615709177977151e-05  7.2354378796106227e-06  -1.2166926899100967e-05  -1.1537191638199477e-05  -1.6552948480794519e-05  -2.7600600900478447e-05  -1.7798698260115359e-05  -6.4993521225656526e-06  -4.5490113326124065e-06  9.8111916961386954e-06  5.3226326784164283e-06  3.6865816917929672e-05  3.4835066871694245e-05  2.7998576175519485e-05  4.1131750976991249e-05  5.2975729931848187e-05  3.4891803305509400e-05  2.9155505378320475e-05  -6.4590868517447596e-07  1.2134368061768097e-06  4.6645747011923483e-06  3.5359290536740258e-06  -6.1862732491527025e-06  -2.2769036400315124e-06  3.7139261621621085e-06  1.1628538803754088e-05  8.1792309391037819e-06  -7.5394868347535223e-17  -7.6192758403732159e-06  -9.6979108880634788e-06  -2.9223759375632727e-06  5.9749877075145199e-06  2.8234887500918836e-05  2.2869231752775100e-05  2.2677365651614472e-05  6.7400954246337826e-06  -1.1993391457620292e-05  -1.2015005427712514e-05  -1.5854329360468038e-05  -2.8234887501088165e-05  -1.9566312126388251e-05  -6.2879924356124857e-06  -5.0039313444133333e-06  9.6712558276519104e-06  5.6619505691506600e-06  3.9465465474154219e-05  3.1811159465012332e-05  3.0779154325700769e-05  4.4411053975723351e-05  5.1252953032957642e-05  3.1959484055414089e-05  -1.8573775660747309e-06  -6.0168938578600468e-07  1.2043396340808515e-06  5.0728855682716302e-06  3.8129879235100151e-06  -6.6794850365203303e-06  -2.2869649292968080e-06  3.4713604061583728e-06  1.0587705314357919e-05  7.6192758402402639e-06  -7.2212819139613216e-17  -7.2977034152972584e-06  -9.0339860410301034e-06  -2.6608033706437380e-06  5.5847463976166084e-06  2.8359653154381455e-05  2.4692522482788693e-05  2.4766379608777968e-05  6.4556289114964028e-06  -1.1603364972489831e-05  -1.2265953828058207e-05  -1.5735468978185246e-05  -2.8359653154551516e-05  -2.1523024539836001e-05  -5.9749877075425000e-06  -5.4648879907786120e-06  9.3567454632912192e-06  6.1575661599265980e-06  4.1715903848840685e-05  2.8963843850687867e-05  3.3857197492726536e-05  4.7542766277268749e-05  4.8701675054948796e-05  -3.3738012889027903e-17  -1.7302203741111290e-06  -5.7629501511570927e-07  1.2406927358005093e-06  5.5766809999064444e-06  4.0452972747025411e-06  -7.1504989752639183e-06  -2.2543462185946302e-06  3.2001713524632535e-06  9.6979108879768189e-06  7.2977034151699256e-06  -7.1671437470701128e-17  -7.2429923141205995e-06  -8.6527056070126308e-06  -2.4371885326217337e-06  5.1484557468359920e-06  2.7955162770638936e-05  2.6433752863355746e-05  2.6706957329704630e-05  6.4072308681071022e-06  -1.1025770750629547e-05  -2.2869231752999343e-05  -1.6210445544747437e-05  -2.7955162770806578e-05  -2.3505701864655200e-05  -5.5847463976427622e-06  -5.8930910648567409e-06  8.8909838391565304e-06  6.7690827533152925e-06  4.3417642993243788e-05  2.6529712368962033e-05  3.6976085250648771e-05  5.0253796399013686e-05  1.6447721717407196e-06  -3.2314096121967139e-17  -1.6571962215177130e-06  -5.7197451411898364e-07  1.3197869111074481e-06  6.1343722432981220e-06  4.2128336111999410e-06  -7.5582417219604879e-06  -2.1810346173671948e-06  2.9223759375439188e-06  9.0339860409493761e-06  7.2429923139942180e-06  -7.3834846348924179e-17  -7.4616226978585563e-06  -8.5878360138026961e-06  -2.2703371310787472e-06  4.7015367406755101e-06  2.7046057625925721e-05  2.7941084174819285e-05  2.8334100151567768e-05  6.6006337163554598e-06  -1.0305650236415197e-05  -2.4692522483030772e-05  -1.7243861623300188e-05  -2.7046057626087921e-05  -2.5347498771342644e-05  -5.1484557468601028e-06  -6.2521323703259443e-06  8.3102915683908487e-06  7.4460191205525232e-06  4.4415419428618208e-05  2.4713472208611404e-05  3.9873358424119055e-05  6.8167054630945434e-07  1.6944197697877485e-06  -3.2071836375064398e-17  -1.6447721717879067e-06  -5.8923961700558622e-07  1.4353137002692603e-06  6.6994638607088850e-06  4.3008239048384905e-06  -7.8665691130611857e-06  -2.0724667152409340e-06  2.6608033706261180e-06  8.6527056069353069e-06  7.4616226977283606e-06  -7.8541818601094895e-17  -7.9373012254336232e-06  -8.8470606272978515e-06  -2.1745172877922734e-06  4.2807171541474292e-06  2.5699754493526476e-05  2.9080899743712246e-05  2.9507559359876052e-05  7.0214241870609000e-06  -9.5005539028947006e-06  -2.6433752863614942e-05  -1.8753293145407689e-05  -2.5699754493680578e-05  -2.6891815488848365e-05  -4.7015367406975279e-06  -6.5110649731711177e-06  7.6610763205691713e-06  8.1319382042373210e-06  4.4611684380219173e-05  2.3670437233022275e-05  -3.5099873495291754e-07  7.4936821117669453e-07  1.8024390484116903e-06  -3.3039927681773518e-17  -1.6944197698363598e-06  -6.2680364895356330e-07  1.5778567313364644e-06  7.2244025281932951e-06  -3.2650707237258993e-06  -8.0473499373329706e-06  -1.9371087588290257e-06  2.4371885326055956e-06  8.5878360137259499e-06  7.9373012252951163e-06  -8.5416931576946485e-17  -8.6320883289176339e-06  -9.4110608378375891e-06  -2.1582148665273300e-06  3.9209641999818946e-06  2.4021239599680705e-05  2.9749204941400601e-05  3.0123861604932650e-05  7.6360405200820960e-06  -8.6758448411794053e-06  -2.7941084175093256e-05  -2.0615709178179301e-05  -2.4021239599824745e-05  -2.8005542353111264e-05  -4.2807171541674734e-06  -6.6470567002988878e-06  6.9960457203911440e-06  8.7691188643246841e-06  4.3975393194423531e-05  -3.2452383276980173e-07  -3.7238361474326531e-07  8.2430814219594041e-07  1.9602145151710529e-06  -3.5146223428322458e-17  -1.8024390484634006e-06  -6.8167054632091988e-07  1.7356489526250276e-06  7.6645550536524608e-06  -3.5253843734262538e-06  -8.0829099470387186e-06  -1.7857782630731167e-06  2.2703371310637119e-06  8.8470606272187894e-06  8.6320883287670128e-06  -9.3899807709985459e-17  -9.4893532143659708e-06  -1.0234852642447583e-05  -2.2233607791548955e-06  3.6525326185058838e-06  2.2144656222148219e-05  2.9880662132238946e-05  9.3119847791540930e-06  8.3943864906391240e-06  -7.8992975886054897e-06  -2.9080899743997402e-05  -2.2677365651836815e-05  -2.2144656222281006e-05  -2.8590473096306511e-05  -3.9209642000002575e-06  7.5090175604849126e-06  6.3698519395543763e-06  9.3033844730198532e-06  -6.9905534419589184e-07  -3.4740811918609316e-07  -3.8780591435419649e-07  9.0024250073234446e-07  2.1548861876298290e-06  -3.8222727907693809e-17  -1.9602145152272904e-06  -7.4936821118929838e-07  1.8955350232767900e-06  7.9819832640837930e-06  -3.7739821575718347e-06  -7.9676243570339388e-06  -1.6307612471366191e-06  2.1745172877778751e-06  9.4110608377534889e-06  9.4893532142003894e-06  -1.0329017816813068e-16  -1.0438327916915990e-05  -1.1251290315903199e-05  -2.3651000528386293e-06  3.4983770535402197e-06  2.0222357918108160e-05  2.9454477777072265e-05  1.0054399553266417e-05  9.2338599766702177e-06  -7.2354378798227706e-06  -2.9749204941692298e-05  -2.4766379609020795e-05  -2.0222357918229441e-05  -5.0462680431409341e-06  -3.6525326185229896e-06  8.1076875227095830e-06  5.8345273735219026e-06  4.2172987807001091e-07  -6.7632198309683821e-07  -3.6721836476918577e-07  -3.9590572541439944e-07  9.7078129436907385e-07  2.3703837492380679e-06  -4.2018681008815602e-17  -2.1548861876916506e-06  -8.2430814220980454e-07  2.0440602858914110e-06  8.1486969575364686e-06  -3.9891858596121477e-06  -7.7085162862438963e-06  -1.4847969993601666e-06  2.1582148665130384e-06  1.0234852642356119e-05  1.0438327916733854e-05  -1.1280515566357748e-16  -1.1399895192537110e-05  -1.2376466040701168e-05  -2.5721277274210417e-06  3.4721496159426433e-06  1.8412319037821026e-05  2.8496614733967353e-05  1.0763400667782394e-05  1.0084472991695807e-05  -6.7400954248314090e-06  -2.9880662132531897e-05  -2.6706957329966492e-05  -1.8412319037931435e-05  -5.4485908602642566e-06  -3.4983770535566009e-06  8.6794133089481821e-06  2.9803944182959913e-07  3.9285799545334725e-07  -6.4265591549662226e-07  -3.8219849963898961e-07  8.3128235568386543e-07  1.0299269242973004e-06  2.5887408905420589e-06  -4.6220723488541046e-17  -2.3703837493060711e-06  -9.0024250074748602e-07  2.1685963002558937e-06  3.2650707235861528e-06  -4.1519188488385022e-06  -7.3248004868523913e-06  -1.3600141446138757e-06  2.2233607791401720e-06  1.1251290315802653e-05  1.1399895192338194e-05  -1.2164404028637535e-16  -1.2293137684213029e-05  -1.3516572466490714e-05  -2.8275693653638913e-06  3.5769567688439634e-06  1.6864941360583759e-05  2.7078105529788976e-05  1.1377161828683103e-05  1.0874645149439660e-05  -6.4556289116856901e-06  -2.9454477777361083e-05  -2.8334100151845584e-05  -1.6864941360684892e-05  -5.8328064439003622e-06  -3.4721496159589030e-06  3.6721836475676001e-07  3.2549450708418790e-07  3.7627737795699677e-07  -6.0068245905559302e-07  -3.9098176446602262e-07  8.9755784012195988e-07  1.0725814369423554e-06  2.7915825241111915e-06  -5.0478525649564232e-17  -2.5887408906163276e-06  -9.7078129438540189e-07  2.2584089035863633e-06  3.5253843732753680e-06  -4.2473336733973267e-06  -6.8463995466905902e-06  -1.2669067534088924e-06  2.3651000528229685e-06  1.2376466040590565e-05  1.2293137683998526e-05  -1.2905530112492310e-16  -1.3042106969411032e-05  -1.4575667893682902e-05  -3.1103380364018189e-06  3.8049878014894043e-06  1.5710357271052244e-05  2.5309567101130942e-05  1.1841276467220799e-05  1.1537191637861194e-05  -6.4072308682949674e-06  -2.8496614734246766e-05  -2.9507559360165375e-05  -1.5710357271146448e-05  -6.1654104381968075e-06  -5.1365009313536938e-08  3.8219849962605674e-07  3.5099873494104044e-07  3.7345641517948245e-07  -5.5375604157570404e-07  -3.9270945313961745e-07  9.6085048187720747e-07  1.0949836403754345e-06  2.9616619311237579e-06  -5.4433786927480284e-17  -2.7915825241912785e-06  -1.0299269243146231e-06  2.3055785952765787e-06  3.7739821574103122e-06  -4.2661019918904593e-06  -6.3115462335653072e-06  -1.2134368061889667e-06  2.5721277274040091e-06  1.3516572466369924e-05  1.3042106969183458e-05  -1.3440013758261664e-16  -1.3582246957521796e-05  -1.5463702164838474e-05  -3.3968589519860924e-06  4.1380552230605715e-06  1.5047299810959770e-05  2.3332337211830948e-05  1.2113399636725541e-05  1.2015005427360222e-05  -6.6006337165490026e-06  -2.7078105530054466e-05  -3.0123861605228014e-05  -1.5047299811049993e-05  -1.2040364679382333e-17  -4.7048276117702799e-08  3.9098176445279291e-07  3.7238361473066474e-07  3.8472923113994011e-07  -5.0568646267168633e-07  -3.8710828458741274e-07  1.0156410378930395e-06  2.3904388250880454e-06  3.0843194161464816e-06  -5.7750209108129219e-17  -2.9616619312087250e-06  -1.0725814369603953e-06  6.1862732490618031e-06  3.9891858594414053e-06  -4.2052550829952490e-06  -5.7636635074149532e-06  -1.2043396340929181e-06  2.8275693653451672e-06  1.4575667893552647e-05  1.3582246957284800e-05  -1.3720725238048485e-16  -1.3865929155386534e-05  -1.6104132727404348e-05  -3.6630209388199747e-06  4.5490113325911045e-06  1.4934489753391900e-05  2.1306940574301105e-05  1.2166926898744222e-05  1.2265953827698557e-05  -7.0214241872667747e-06  -2.5309567101379106e-05  -2.1705124121731173e-05  -1.2847200423808877e-17  -1.2773933566276127e-17  -4.3827322668534971e-08  3.9270945312632951e-07  3.8780591434107410e-07  4.0925572378024111e-07  -4.6042407722794886e-07  -3.7451947814879876e-07  1.0570726251626698e-06  2.5810208698879808e-06  3.1487392808143644e-06  -6.0141939012984284e-17  -3.0843194162349678e-06  -1.0949836403938515e-06  6.6794850364222007e-06  4.1519188486608007e-06  -4.0684996985909898e-06  -5.2477763352285949e-06  -1.2406927358129408e-06  3.1103380363812220e-06  1.5463702164700279e-05  1.3865929155144587e-05  -1.0526643346089850e-05  -1.2481179450620863e-05  -1.6440487660509547e-05  -3.8861934310419194e-06  5.0039313443899001e-06  1.5385288688984999e-05  1.9399824153178017e-05  1.1993391457268626e-05  -9.3119847794271374e-06  -7.6360405203059922e-06  -2.3332337212059707e-05  5.4584314036194110e-08  -1.2207690355008485e-17  -1.3302967129702547e-17  -4.1977585406047746e-08  3.8710828457431412e-07  3.9590572540100293e-07  4.4507968847977867e-07  -4.2172987810497903e-07  -3.5587658558567223e-07  1.0813651035920217e-06  2.7630254404886266e-06  -4.6611782580007377e-17  -6.1398078552812197e-17  -3.1487392809046987e-06  1.7503337357978011e-06  7.1504989751588565e-06  4.2473336732155365e-06  -3.8659772472919130e-06  -4.8067513921137855e-06  -1.3197869111206714e-06  3.3968589519635973e-06  1.6104132727260433e-05  -1.0416408407403543e-16  -1.1365898964230828e-05  -1.3476263983322380e-05  -3.1366536341438195e-06  -4.0471404680937018e-06  5.4648879907530189e-06  1.6366101009071084e-05  1.7769456203584382e-05  1.1603364972149617e-05  -1.0054399553561224e-05  -8.3943864908852548e-06  7.7986764892536563e-08  6.0042971966428545e-08  -1.1410375731419356e-17  -1.3580816219420833e-17  -4.1662878190420426e-08  3.7451947813612593e-07  5.4276496748995550e-07  4.8928118105276311e-07  -3.9285799548592117e-07  -3.3263340054174526e-07  1.0861434907478728e-06  2.9205813797586958e-06  -5.0327990977660312e-17  -2.3904388251566242e-06  -8.3128235569784676e-07  1.8898822483761892e-06  7.5582417218494419e-06  4.2661019917078678e-06  -3.6134806566928525e-06  -4.4776782835265949e-06  -1.4353137002836408e-06  3.6630209387957170e-06  1.6440487660362628e-05  -1.1246875346326813e-16  -1.2167382433275739e-05  -1.4426563017398745e-05  -3.3867289998676256e-06  -4.1316700534153946e-06  5.8930910648291438e-06  1.7798698260008619e-05  1.6552948480632224e-05  1.1025770750306271e-05  -1.0763400668097989e-05  -1.0256382064618797e-18  7.5450626227738425e-08  6.5574064439619572e-08  -1.0518976212251062e-17  -6.0550976787194069e-08  -4.2920475969261250e-08  3.5587658557363023e-07  5.8603788301675132e-07  5.3821132969028442e-07  -3.7627737798819601e-07  -3.0664746806401222e-07  1.0706519544099476e-06  3.0397222157419984e-06  -5.3876944995796476e-17  -2.5810208699620305e-06  -8.9755784013705602e-07  2.0231501390447429e-06  7.8665691129456030e-06  4.2052550828152621e-06  -3.3311889078742325e-06  -4.2886973495756535e-06  -1.5778567313522728e-06  3.8861934310161840e-06  1.0526643345906168e-05  -1.2039965685846627e-16  -1.2861202815687372e-05  -1.5249208604854166e-05  -3.6255492916959541e-06  5.0462680431173036e-06  6.2521323702966667e-06  1.9566312126270914e-05  1.5854329360312584e-05  1.0305650236113033e-05  -1.1446858249199883e-18  -1.1201188688639727e-18  7.1694832468927598e-08  7.0712141564022259e-08  -9.6058615569499859e-18  -6.5378512572516619e-08  -4.5656656775848860e-08  3.3263340053048967e-07  6.2736322621663135e-07  5.8779076483717419e-07  -3.7345641521044769e-07  -2.8002849950183336e-07  1.0358342283270358e-06  3.1095777626546538e-06  -5.6949168852089739e-17  -2.7630254405678954e-06  -9.6085048189336949e-07  2.1385161851804528e-06  8.0473499372147231e-06  4.0684996984168576e-06  -3.0420203281588660e-06  -4.2565448570371316e-06  -1.7356489526424168e-06  4.0471404680669008e-06  1.1365898964032509e-05  -1.2726520385856000e-16  -1.3385856730771363e-05  -1.5871277715428387e-05  -3.8322889096714066e-06  5.4485908602387355e-06  6.5110649731406271e-06  2.1523024539706933e-05  1.5735468978030964e-05  -1.3624238310056715e-18  -1.0552608648704472e-18  -1.2078861467642348e-18  6.7012264620227471e-08  7.5020335572947978e-08  -8.7460714688136329e-18  -6.9988776769173785e-08  -4.9653186000972613e-08  3.0664746805363607e-07  6.6313734574575893e-07  6.3384730119120734e-07  -3.8472923117184032e-07  -2.5496403996949977e-07  9.8427230068748724e-07  3.1233185116318804e-06  -5.9272326711211929e-17  -2.9205813798424830e-06  -1.0156410379101220e-06  2.2257538180134347e-06  8.0829099469199646e-06  3.8659772471264502e-06  -2.7697387727196311e-06  -4.3850290518467229e-06  -1.8955350232957818e-06  4.1316700533880346e-06  1.2167382433063433e-05  -1.3245680128651711e-16  -1.3693475742133626e-05  -1.6236013933518400e-05  -3.9886215178268120e-06  5.8328064438730488e-06  6.6470567002677610e-06  2.3505701864514244e-05  -7.1167429358423971e-19  -1.0343158106818055e-18  -9.6365744820365669e-19  -1.2814775802275049e-18  6.1777143370331699e-08  7.8127309258984828e-08  -8.0110485894813462e-18  -7.3979745256340485e-08  -5.4584314041758772e-08  2.8002849949235781e-07  6.9018906164433351e-07  6.7246495701617363e-07  -4.0925572381417495e-07  -2.3353677363022820e-07  9.1998702836241706e-07  3.0787709885559546e-06  -6.0634458019709327e-17  -3.0397222158292060e-06  -1.0570726251804482e-06  2.2769036400086984e-06  7.9676243569168772e-06  3.6134806565381932e-06  -2.5369689657289248e-06  -4.6645747012608851e-06  -2.0440602859118906e-06  1.2481179450509324e-05  1.2861202815462947e-05  -1.3550077755785268e-16  -1.3753985119020145e-05  -1.6307758398162614e-05  -4.0802836230390712e-06  6.1654104381679423e-06  2.1705124121600997e-05  -1.2888276916724100e-18  -7.3315624705800253e-19  -1.1167785033471921e-18  -8.7740353777489244e-19  -1.3345500850437688e-18  5.6414490785530972e-08  7.9759095727980885e-08  -7.4626073560302494e-18  -7.6997640514030894e-08  -6.0042971972549682e-08  2.5496403996087263e-07  7.0605022623516692e-07  7.0031515137047019e-07  -4.4507968851668268e-07  -2.1754870480811096e-07  8.4811595119313688e-07  2.9786489979220914e-06  -6.0902392424510266e-17  -3.1095777627438638e-06  -1.0813651036102090e-06  2.286964929