<?xml version="1.0"?>
<VTKFile type="UnstructuredGrid"  version="0.1"  >
<UnstructuredGrid>
<Piece  NumberOfPoints="1089" NumberOfCells="2048">
<Points>
<DataArray  type="Float64"  NumberOfComponents="3"  format="ascii">0 0 0  0.03125 0 0  0.0625 0 0  0.09375 0 0  0.125 0 0  0.15625 0 0  0.1875 0 0  0.21875 0 0  0.25 0 0  0.28125 0 0  0.3125 0 0  0.34375 0 0  0.375 0 0  0.40625 0 0  0.4375 0 0  0.46875 0 0  0.5 0 0  0.53125 0 0  0.5625 0 0  0.59375 0 0  0.625 0 0  0.65625 0 0  0.6875 0 0  0.71875 0 0  0.75 0 0  0.78125 0 0  0.8125 0 0  0.84375 0 0  0.875 0 0  0.90625 0 0  0.9375 0 0  0.96875 0 0  1 0 0  0 0.03125 0  0.03125 0.03125 0  0.0625 0.03125 0  0.09375 0.03125 0  0.125 0.03125 0  0.15625 0.03125 0  0.1875 0.03125 0  0.21875 0.03125 0  0.25 0.03125 0  0.28125 0.03125 0  0.3125 0.03125 0  0.34375 0.03125 0  0.375 0.03125 0  0.40625 0.03125 0  0.4375 0.03125 0  0.46875 0.03125 0  0.5 0.03125 0  0.53125 0.03125 0  0.5625 0.03125 0  0.59375 0.03125 0  0.625 0.03125 0  0.65625 0.03125 0  0.6875 0.03125 0  0.71875 0.03125 0  0.75 0.03125 0  0.78125 0.03125 0  0.8125 0.03125 0  0.84375 0.03125 0  0.875 0.03125 0  0.90625 0.03125 0  0.9375 0.03125 0  0.96875 0.03125 0  1 0.03125 0  0 0.0625 0  0.03125 0.0625 0  0.0625 0.0625 0  0.09375 0.0625 0  0.125 0.0625 0  0.15625 0.0625 0  0.1875 0.0625 0  0.21875 0.0625 0  0.25 0.0625 0  0.28125 0.0625 0  0.3125 0.0625 0  0.34375 0.0625 0  0.375 0.0625 0  0.40625 0.0625 0  0.4375 0.0625 0  0.46875 0.0625 0  0.5 0.0625 0  0.53125 0.0625 0  0.5625 0.0625 0  0.59375 0.0625 0  0.625 0.0625 0  0.65625 0.0625 0  0.6875 0.0625 0  0.71875 0.0625 0  0.75 0.0625 0  0.78125 0.0625 0  0.8125 0.0625 0  0.84375 0.0625 0  0.875 0.0625 0  0.90625 0.0625 0  0.9375 0.0625 0  0.96875 0.0625 0  1 0.0625 0  0 0.09375 0  0.03125 0.09375 0  0.0625 0.09375 0  0.09375 0.09375 0  0.125 0.09375 0  0.15625 0.09375 0  0.1875 0.09375 0  0.21875 0.09375 0  0.25 0.09375 0  0.28125 0.09375 0  0.3125 0.09375 0  0.34375 0.09375 0  0.375 0.09375 0  0.40625 0.09375 0  0.4375 0.09375 0  0.46875 0.09375 0  0.5 0.09375 0  0.53125 0.09375 0  0.5625 0.09375 0  0.59375 0.09375 0  0.625 0.09375 0  0.65625 0.09375 0  0.6875 0.09375 0  0.71875 0.09375 0  0.75 0.09375 0  0.78125 0.09375 0  0.8125 0.09375 0  0.84375 0.09375 0  0.875 0.09375 0  0.90625 0.09375 0  0.9375 0.09375 0  0.96875 0.09375 0  1 0.09375 0  0 0.125 0  0.03125 0.125 0  0.0625 0.125 0  0.09375 0.125 0  0.125 0.125 0  0.15625 0.125 0  0.1875 0.125 0  0.21875 0.125 0  0.25 0.125 0  0.28125 0.125 0  0.3125 0.125 0  0.34375 0.125 0  0.375 0.125 0  0.40625 0.125 0  0.4375 0.125 0  0.46875 0.125 0  0.5 0.125 0  0.53125 0.125 0  0.5625 0.125 0  0.59375 0.125 0  0.625 0.125 0  0.65625 0.125 0  0.6875 0.125 0  0.71875 0.125 0  0.75 0.125 0  0.78125 0.125 0  0.8125 0.125 0  0.84375 0.125 0  0.875 0.125 0  0.90625 0.125 0  0.9375 0.125 0  0.96875 0.125 0  1 0.125 0  0 0.15625 0  0.03125 0.15625 0  0.0625 0.15625 0  0.09375 0.15625 0  0.125 0.15625 0  0.15625 0.15625 0  0.1875 0.15625 0  0.21875 0.15625 0  0.25 0.15625 0  0.28125 0.15625 0  0.3125 0.15625 0  0.34375 0.15625 0  0.375 0.15625 0  0.40625 0.15625 0  0.4375 0.15625 0  0.46875 0.15625 0  0.5 0.15625 0  0.53125 0.15625 0  0.5625 0.15625 0  0.59375 0.15625 0  0.625 0.15625 0  0.65625 0.15625 0  0.6875 0.15625 0  0.71875 0.15625 0  0.75 0.15625 0  0.78125 0.15625 0  0.8125 0.15625 0  0.84375 0.15625 0  0.875 0.15625 0  0.90625 0.15625 0  0.9375 0.15625 0  0.96875 0.15625 0  1 0.15625 0  0 0.1875 0  0.03125 0.1875 0  0.0625 0.1875 0  0.09375 0.1875 0  0.125 0.1875 0  0.15625 0.1875 0  0.1875 0.1875 0  0.21875 0.1875 0  0.25 0.1875 0  0.28125 0.1875 0  0.3125 0.1875 0  0.34375 0.1875 0  0.375 0.1875 0  0.40625 0.1875 0  0.4375 0.1875 0  0.46875 0.1875 0  0.5 0.1875 0  0.53125 0.1875 0  0.5625 0.1875 0  0.59375 0.1875 0  0.625 0.1875 0  0.65625 0.1875 0  0.6875 0.1875 0  0.71875 0.1875 0  0.75 0.1875 0  0.78125 0.1875 0  0.8125 0.1875 0  0.84375 0.1875 0  0.875 0.1875 0  0.90625 0.1875 0  0.9375 0.1875 0  0.96875 0.1875 0  1 0.1875 0  0 0.21875 0  0.03125 0.21875 0  0.0625 0.21875 0  0.09375 0.21875 0  0.125 0.21875 0  0.15625 0.21875 0  0.1875 0.21875 0  0.21875 0.21875 0  0.25 0.21875 0  0.28125 0.21875 0  0.3125 0.21875 0  0.34375 0.21875 0  0.375 0.21875 0  0.40625 0.21875 0  0.4375 0.21875 0  0.46875 0.21875 0  0.5 0.21875 0  0.53125 0.21875 0  0.5625 0.21875 0  0.59375 0.21875 0  0.625 0.21875 0  0.65625 0.21875 0  0.6875 0.21875 0  0.71875 0.21875 0  0.75 0.21875 0  0.78125 0.21875 0  0.8125 0.21875 0  0.84375 0.21875 0  0.875 0.21875 0  0.90625 0.21875 0  0.9375 0.21875 0  0.96875 0.21875 0  1 0.21875 0  0 0.25 0  0.03125 0.25 0  0.0625 0.25 0  0.09375 0.25 0  0.125 0.25 0  0.15625 0.25 0  0.1875 0.25 0  0.21875 0.25 0  0.25 0.25 0  0.28125 0.25 0  0.3125 0.25 0  0.34375 0.25 0  0.375 0.25 0  0.40625 0.25 0  0.4375 0.25 0  0.46875 0.25 0  0.5 0.25 0  0.53125 0.25 0  0.5625 0.25 0  0.59375 0.25 0  0.625 0.25 0  0.65625 0.25 0  0.6875 0.25 0  0.71875 0.25 0  0.75 0.25 0  0.78125 0.25 0  0.8125 0.25 0  0.84375 0.25 0  0.875 0.25 0  0.90625 0.25 0  0.9375 0.25 0  0.96875 0.25 0  1 0.25 0  0 0.28125 0  0.03125 0.28125 0  0.0625 0.28125 0  0.09375 0.28125 0  0.125 0.28125 0  0.15625 0.28125 0  0.1875 0.28125 0  0.21875 0.28125 0  0.25 0.28125 0  0.28125 0.28125 0  0.3125 0.28125 0  0.34375 0.28125 0  0.375 0.28125 0  0.40625 0.28125 0  0.4375 0.28125 0  0.46875 0.28125 0  0.5 0.28125 0  0.53125 0.28125 0  0.5625 0.28125 0  0.59375 0.28125 0  0.625 0.28125 0  0.65625 0.28125 0  0.6875 0.28125 0  0.71875 0.28125 0  0.75 0.28125 0  0.78125 0.28125 0  0.8125 0.28125 0  0.84375 0.28125 0  0.875 0.28125 0  0.90625 0.28125 0  0.9375 0.28125 0  0.96875 0.28125 0  1 0.28125 0  0 0.3125 0  0.03125 0.3125 0  0.0625 0.3125 0  0.09375 0.3125 0  0.125 0.3125 0  0.15625 0.3125 0  0.1875 0.3125 0  0.21875 0.3125 0  0.25 0.3125 0  0.28125 0.3125 0  0.3125 0.3125 0  0.34375 0.3125 0  0.375 0.3125 0  0.40625 0.3125 0  0.4375 0.3125 0  0.46875 0.3125 0  0.5 0.3125 0  0.53125 0.3125 0  0.5625 0.3125 0  0.59375 0.3125 0  0.625 0.3125 0  0.65625 0.3125 0  0.6875 0.3125 0  0.71875 0.3125 0  0.75 0.3125 0  0.78125 0.3125 0  0.8125 0.3125 0  0.84375 0.3125 0  0.875 0.3125 0  0.90625 0.3125 0  0.9375 0.3125 0  0.96875 0.3125 0  1 0.3125 0  0 0.34375 0  0.03125 0.34375 0  0.0625 0.34375 0  0.09375 0.34375 0  0.125 0.34375 0  0.15625 0.34375 0  0.1875 0.34375 0  0.21875 0.34375 0  0.25 0.34375 0  0.28125 0.34375 0  0.3125 0.34375 0  0.34375 0.34375 0  0.375 0.34375 0  0.40625 0.34375 0  0.4375 0.34375 0  0.46875 0.34375 0  0.5 0.34375 0  0.53125 0.34375 0  0.5625 0.34375 0  0.59375 0.34375 0  0.625 0.34375 0  0.65625 0.34375 0  0.6875 0.34375 0  0.71875 0.34375 0  0.75 0.34375 0  0.78125 0.34375 0  0.8125 0.34375 0  0.84375 0.34375 0  0.875 0.34375 0  0.90625 0.34375 0  0.9375 0.34375 0  0.96875 0.34375 0  1 0.34375 0  0 0.375 0  0.03125 0.375 0  0.0625 0.375 0  0.09375 0.375 0  0.125 0.375 0  0.15625 0.375 0  0.1875 0.375 0  0.21875 0.375 0  0.25 0.375 0  0.28125 0.375 0  0.3125 0.375 0  0.34375 0.375 0  0.375 0.375 0  0.40625 0.375 0  0.4375 0.375 0  0.46875 0.375 0  0.5 0.375 0  0.53125 0.375 0  0.5625 0.375 0  0.59375 0.375 0  0.625 0.375 0  0.65625 0.375 0  0.6875 0.375 0  0.71875 0.375 0  0.75 0.375 0  0.78125 0.375 0  0.8125 0.375 0  0.84375 0.375 0  0.875 0.375 0  0.90625 0.375 0  0.9375 0.375 0  0.96875 0.375 0  1 0.375 0  0 0.40625 0  0.03125 0.40625 0  0.0625 0.40625 0  0.09375 0.40625 0  0.125 0.40625 0  0.15625 0.40625 0  0.1875 0.40625 0  0.21875 0.40625 0  0.25 0.40625 0  0.28125 0.40625 0  0.3125 0.40625 0  0.34375 0.40625 0  0.375 0.40625 0  0.40625 0.40625 0  0.4375 0.40625 0  0.46875 0.40625 0  0.5 0.40625 0  0.53125 0.40625 0  0.5625 0.40625 0  0.59375 0.40625 0  0.625 0.40625 0  0.65625 0.40625 0  0.6875 0.40625 0  0.71875 0.40625 0  0.75 0.40625 0  0.78125 0.40625 0  0.8125 0.40625 0  0.84375 0.40625 0  0.875 0.40625 0  0.90625 0.40625 0  0.9375 0.40625 0  0.96875 0.40625 0  1 0.40625 0  0 0.4375 0  0.03125 0.4375 0  0.0625 0.4375 0  0.09375 0.4375 0  0.125 0.4375 0  0.15625 0.4375 0  0.1875 0.4375 0  0.21875 0.4375 0  0.25 0.4375 0  0.28125 0.4375 0  0.3125 0.4375 0  0.34375 0.4375 0  0.375 0.4375 0  0.40625 0.4375 0  0.4375 0.4375 0  0.46875 0.4375 0  0.5 0.4375 0  0.53125 0.4375 0  0.5625 0.4375 0  0.59375 0.4375 0  0.625 0.4375 0  0.65625 0.4375 0  0.6875 0.4375 0  0.71875 0.4375 0  0.75 0.4375 0  0.78125 0.4375 0  0.8125 0.4375 0  0.84375 0.4375 0  0.875 0.4375 0  0.90625 0.4375 0  0.9375 0.4375 0  0.96875 0.4375 0  1 0.4375 0  0 0.46875 0  0.03125 0.46875 0  0.0625 0.46875 0  0.09375 0.46875 0  0.125 0.46875 0  0.15625 0.46875 0  0.1875 0.46875 0  0.21875 0.46875 0  0.25 0.46875 0  0.28125 0.46875 0  0.3125 0.46875 0  0.34375 0.46875 0  0.375 0.46875 0  0.40625 0.46875 0  0.4375 0.46875 0  0.46875 0.46875 0  0.5 0.46875 0  0.53125 0.46875 0  0.5625 0.46875 0  0.59375 0.46875 0  0.625 0.46875 0  0.65625 0.46875 0  0.6875 0.46875 0  0.71875 0.46875 0  0.75 0.46875 0  0.78125 0.46875 0  0.8125 0.46875 0  0.84375 0.46875 0  0.875 0.46875 0  0.90625 0.46875 0  0.9375 0.46875 0  0.96875 0.46875 0  1 0.46875 0  0 0.5 0  0.03125 0.5 0  0.0625 0.5 0  0.09375 0.5 0  0.125 0.5 0  0.15625 0.5 0  0.1875 0.5 0  0.21875 0.5 0  0.25 0.5 0  0.28125 0.5 0  0.3125 0.5 0  0.34375 0.5 0  0.375 0.5 0  0.40625 0.5 0  0.4375 0.5 0  0.46875 0.5 0  0.5 0.5 0  0.53125 0.5 0  0.5625 0.5 0  0.59375 0.5 0  0.625 0.5 0  0.65625 0.5 0  0.6875 0.5 0  0.71875 0.5 0  0.75 0.5 0  0.78125 0.5 0  0.8125 0.5 0  0.84375 0.5 0  0.875 0.5 0  0.90625 0.5 0  0.9375 0.5 0  0.96875 0.5 0  1 0.5 0  0 0.53125 0  0.03125 0.53125 0  0.0625 0.53125 0  0.09375 0.53125 0  0.125 0.53125 0  0.15625 0.53125 0  0.1875 0.53125 0  0.21875 0.53125 0  0.25 0.53125 0  0.28125 0.53125 0  0.3125 0.53125 0  0.34375 0.53125 0  0.375 0.53125 0  0.40625 0.53125 0  0.4375 0.53125 0  0.46875 0.53125 0  0.5 0.53125 0  0.53125 0.53125 0  0.5625 0.53125 0  0.59375 0.53125 0  0.625 0.53125 0  0.65625 0.53125 0  0.6875 0.53125 0  0.71875 0.53125 0  0.75 0.53125 0  0.78125 0.531
[...]
<PointData  Scalars="theta"> 
<DataArray  type="Float64"  Name="theta"  format="ascii">-7.1200817251615672e-02  -1.0603253489677648e-01  -5.5615358956256883e-02  -4.9499909413076380e-02  -6.1008266746948002e-02  -1.1639658428668032e-01  -6.6428373085056724e-02  -2.9759933333511012e-03  -1.9498071397405609e-01  -6.2738925691421296e-02  -1.3870815217086310e-01  -2.9759933333511060e-03  -2.8329617316864130e-02  -9.9072007655695862e-02  -1.8510122687545055e-01  -1.7601085245656373e-01  -1.4380616641234405e-02  -1.0805774529318907e-03  -2.9332217691419620e-02  -6.5061062057055294e-02  -1.0992341270847579e-01  -1.8867220014710406e-01  -2.5398709146176401e-01  -4.5358542628578455e-02  -9.4061729880869249e-02  -2.9332217691419700e-02  -5.9755117086484743e-03  -4.6766455979511528e-04  5.1648180892189285e-04  -2.6324249039317571e-03  -5.7832417919409128e-04  -2.5111628759875236e-02  -1.5960253156298988e-02  0.0000000000000000e+00  -4.8484022434343091e-02  -8.7498997848025450e-02  0.0000000000000000e+00  -4.0847768766715573e-02  -4.1543430087135604e-02  -5.9084972389636031e-02  -3.3720221376531925e-02  -2.0264953845789756e-03  -1.6089983219802345e-01  0.0000000000000000e+00  -1.1446320999603785e-01  -2.0264953845789786e-03  -1.4380616641234353e-02  -5.0290709755754025e-02  -1.2604422790175387e-01  -1.4524573250388448e-01  0.0000000000000000e+00  -8.9170219613024407e-04  -1.9973701924995153e-02  -3.3026150026993585e-02  -5.5799075588492883e-02  -1.2847587342070135e-01  -2.0959242359785141e-01  0.0000000000000000e+00  -7.7620582290520546e-02  -1.9973701924995209e-02  -3.0332758171825853e-03  -2.3739483226629097e-04  3.5169702508057834e-04  -2.1723006172439992e-03  0.0000000000000000e+00  -2.0722341052769985e-02  -5.4844489988626925e-03  -2.6394339683488194e-01  -2.4611350448360804e-02  -6.7391331559533099e-02  -2.8056480771813530e-01  -3.1460766364502887e-02  -2.1088182567485101e-02  0.0000000000000000e+00  0.0000000000000000e+00  -1.0286850304014926e-03  -1.2392432149181390e-01  -3.1818255756636976e-01  -8.8159045542548747e-02  -1.0286850304014939e-03  0.0000000000000000e+00  0.0000000000000000e+00  -6.3982287548109293e-02  -1.1186760485848721e-01  -2.8376431753557110e-02  -6.8678498988240908e-04  -1.0139005658881754e-02  0.0000000000000000e+00  0.0000000000000000e+00  -6.5216633978710123e-02  -1.6142713469223646e-01  -1.7430629046188953e-01  -5.9783020670362313e-02  -1.0139005658881782e-02  0.0000000000000000e+00  0.0000000000000000e+00  1.7852765305571800e-04  -1.6730960896024979e-03  -2.9116914601230472e-02  -1.6149566764266243e-01  -3.7346221372878321e-03  -2.2763567794569428e-01  0.0000000000000000e+00  -4.5889962465824274e-02  -2.4197066863004280e-01  -2.1423131940013957e-02  0.0000000000000000e+00  -3.1184023420419649e-01  -1.1129976921067217e-01  0.0000000000000000e+00  -8.4385963747256168e-02  -2.7441376852259791e-01  -6.0031686529247189e-02  0.0000000000000000e+00  -1.3756307730136064e-01  -3.1232216488404990e-01  0.0000000000000000e+00  -7.6175972032287959e-02  -2.4473005793517296e-02  -4.6766455979510850e-04  0.0000000000000000e+00  -2.3939451918806348e-01  -3.3128781588575407e-01  0.0000000000000000e+00  -1.0992341270847583e-01  -1.5032893823183369e-01  -4.0709101766790053e-02  0.0000000000000000e+00  -1.2529287414166828e-03  9.4223798182879346e-04  0.0000000000000000e+00  -1.1392906917969186e-03  -1.8725410478883894e-01  -1.3326767193943928e-01  -1.8957604917675063e-03  -1.8784700105580188e-01  -6.3125444277707082e-02  -2.3294559560068956e-02  -1.9967636381000126e-01  -1.0874762063959490e-02  -1.7796947863716900e-01  -2.6894388711767564e-01  -9.5989514127986592e-02  -3.9677757487713385e-02  -4.2835813169562371e-02  -2.2644870053141877e-01  -3.0473149730474935e-02  -3.4043525640281803e-03  -1.1864007486946453e-01  -2.6935952402447771e-01  -3.1232216488405035e-01  -3.8668275635958420e-02  -2.0195343658871486e-02  -2.3739483226628756e-04  -1.0906450483058512e-01  -2.0646371277076975e-01  -2.8571628412996031e-01  -3.3128781588575407e-01  -5.5799075588492911e-02  -1.2405278677576023e-01  -2.0664662701557646e-02  -1.6009103550026549e-02  -1.0805774529319065e-03  8.1262492016028441e-04  -3.0522946900364304e-03  -1.1249622009931877e-02  -1.6149566764266238e-01  -1.0264215690146342e-01  0.0000000000000000e+00  -1.4467890880993883e-01  -5.4441988229651968e-02  0.0000000000000000e+00  -1.5378983038747360e-01  0.0000000000000000e+00  -1.5348822288802097e-01  -2.2193490538595539e-01  -7.9211407124183036e-02  -3.4219735494011173e-02  0.0000000000000000e+00  -1.7440976278658765e-01  0.0000000000000000e+00  -2.9360541433188919e-03  -9.7902852797009263e-02  -2.2227789268555392e-01  -2.6935952402447805e-01  0.0000000000000000e+00  -1.5554362152096756e-02  0.0000000000000000e+00  -9.4061729880869055e-02  -1.7037570569270749e-01  -2.3577563768112134e-01  -2.8571628412996031e-01  0.0000000000000000e+00  -9.5544894114212742e-02  0.0000000000000000e+00  -1.3806911571244519e-02  -8.9170219613025708e-04  6.7058536523319722e-04  -1.7365248260929619e-01  -9.7021382749940335e-03  -1.3326767193943923e-01  -6.9893925800507434e-02  -6.3125444277707041e-02  -9.8518749240314077e-02  -4.4926016487165633e-02  -1.8830912552150059e-01  -1.0472280901397786e-01  -8.7948288341041861e-03  -1.2665985678122735e-01  -1.7093325822400884e-01  -6.1008266746948175e-02  -2.8238432338388915e-02  -2.8131054162390545e-01  -1.1876390156914229e-01  -9.5412490781987810e-02  -2.4228581861033679e-03  -7.5404333486504077e-02  -1.7119742548759398e-01  -2.2227789268555423e-01  -1.3756307730136080e-01  -1.0591704879862787e-02  -1.6009103550026445e-02  -7.7620582290520379e-02  -1.3122259630869346e-01  -1.8159332750560592e-01  -2.3577563768112134e-01  -2.3939451918806365e-01  -6.5061062057055363e-02  -5.3511912951624968e-02  -1.1393587138478658e-02  -6.8678498988241905e-04  -3.6848597508069784e-02  -1.4329958457493233e-01  -8.0062914356559146e-03  -1.0264215690146339e-01  -3.5479397453408140e-02  -5.4441988229651940e-02  -5.0009865962978677e-02  -3.4601814274424311e-02  -1.6240556106150186e-01  -5.3159156835017818e-02  -7.5850233348329268e-03  -9.7552847616063199e-02  -1.1639658428668032e-01  -4.1543430087135728e-02  -2.1749112598330789e-02  -2.4261382032560602e-01  -6.0286664665478704e-02  -8.2287669568912480e-02  -1.8660743935035328e-03  -5.1346396537651995e-02  -1.1657646833897733e-01  -1.7119742548759420e-01  -1.1864007486946468e-01  -5.3765374149169053e-03  -1.3806911571244428e-02  -5.9783020670362196e-02  -8.9355706140845884e-02  -1.2365553240203886e-01  -1.8159332750560592e-01  -2.0646371277076986e-01  -3.3026150026993620e-02  -4.6150882079215173e-02  -8.7752891734287942e-03  0.0000000000000000e+00  -2.5091962384951334e-02  -1.1036869054438601e-01  -6.1664093757927982e-03  -6.9893925800507406e-02  0.0000000000000000e+00  -4.4926016487165599e-02  0.0000000000000000e+00  -2.3562020834979852e-02  -1.3401852414130797e-01  0.0000000000000000e+00  -6.2592292176912381e-03  -6.6428373085056613e-02  -5.9084972389636031e-02  -2.1088182567485163e-02  -1.4810005051179322e-02  -2.0020709835181735e-01  0.0000000000000000e+00  -6.7904522225547534e-02  -1.2706987960412130e-03  -2.6064342354431443e-02  -5.9176284727780998e-02  -1.1657646833897749e-01  -9.7902852797009388e-02  0.0000000000000000e+00  -1.1393587138478583e-02  -4.0709101766789969e-02  -4.5358542628578420e-02  -6.2769743309695064e-02  -1.2365553240203886e-01  -1.7037570569270760e-01  0.0000000000000000e+00  -3.8084121403538090e-02  -8.6490586212238707e-02  -6.5431164834277161e-02  -1.2737125524793341e-02  -7.5155289994675661e-02  -4.1990013886883774e-03  -3.5479397453408126e-02  -1.3187726265787830e-01  -3.4601814274424290e-02  -2.6394339683488205e-01  -1.1960500035378819e-02  -1.0322045986415819e-01  -2.4363267115399240e-01  -4.8208299739522804e-03  -3.3720221376531870e-02  0.0000000000000000e+00  0.0000000000000000e+00  -7.5178214627337255e-03  -1.5419859972606359e-01  -2.8131054162390579e-01  -5.2299755245674810e-02  -6.4502926559014502e-04  0.0000000000000000e+00  0.0000000000000000e+00  -5.9176284727781081e-02  -7.5404333486504174e-02  -3.4043525640281985e-03  -8.7752891734287370e-03  -2.0664662701557604e-02  0.0000000000000000e+00  0.0000000000000000e+00  -6.2769743309695064e-02  -1.3122259630869354e-01  -1.0906450483058533e-01  -9.6890810062984466e-03  -5.8895553227354430e-02  -5.6430536790980444e-02  0.0000000000000000e+00  -3.8150159315101559e-02  -2.1314876431737942e-03  0.0000000000000000e+00  -1.1373639367658990e-01  -2.3562020834979838e-02  -2.2763567794569439e-01  0.0000000000000000e+00  -7.0287719789108097e-02  -2.1011886992783491e-01  -3.2827323847038031e-03  0.0000000000000000e+00  -2.8642613958832808e-01  -4.9476936123929866e-02  0.0000000000000000e+00  -1.0500115949572347e-01  -2.4261382032560633e-01  -3.5613390471082140e-02  0.0000000000000000e+00  -2.0408445062935832e-01  -3.3768741402377994e-01  0.0000000000000000e+00  -5.1346396537652064e-02  -2.9360541433189075e-03  -5.9755117086484344e-03  0.0000000000000000e+00  -2.9449784092554554e-01  -3.4420208034992028e-01  0.0000000000000000e+00  -8.9355706140845953e-02  -1.0819590294666546e-01  -7.9955164605352257e-03  -2.9896428298444380e-02  -4.6566984577363232e-02  -1.2881298869318825e-01  0.0000000000000000e+00  0.0000000000000000e+00  -2.2422060307168851e-01  -9.3856291139679845e-02  -1.1960500035378810e-02  -1.8784700105580196e-01  -1.0005494998784826e-02  -3.5679294272427914e-02  -1.7339197412891522e-01  -1.6663732316669348e-03  -2.3943715699871709e-01  -2.4702572312254337e-01  -4.2670951546070819e-02  -9.5412490781987574e-02  -5.3300452480670737e-02  -2.0020709835181763e-01  -1.8077989191698368e-02  -2.8376431753557026e-02  -1.7601085245656339e-01  -2.9123556166521475e-01  -2.6542564165233473e-01  -2.6064342354431481e-02  -2.4228581861033814e-03  -3.0332758171825653e-03  -1.7430629046188933e-01  -2.5398709146176390e-01  -2.9685407875457637e-01  -2.9449784092554571e-01  -1.0819590294666553e-01  -9.3312611770387785e-02  -6.1581105387916567e-03  0.0000000000000000e+00  -3.5865680459922757e-02  -1.1109363735183166e-01  -1.7588963208951114e-01  -1.0834519301030949e-02  -1.9337710130913521e-01  -7.2287690038783325e-02  0.0000000000000000e+00  -1.4467890880993892e-01  -8.6291517974797696e-03  0.0000000000000000e+00  -1.3354571258723738e-01  0.0000000000000000e+00  -2.0650048537827059e-01  -2.0384784007048634e-01  -3.5212451547419879e-02  -8.2287669568912272e-02  0.0000000000000000e+00  -1.5419859972606378e-01  0.0000000000000000e+00  -2.4473005793517223e-02  -1.4524573250388423e-01  -2.4033019495592400e-01  -2.2891402704610175e-01  0.0000000000000000e+00  -1.8660743935035430e-03  0.0000000000000000e+00  -1.5032893823183355e-01  -2.0959242359785130e-01  -2.4496664559996209e-01  -8.5652550586891151e-03  -9.3312611770387840e-02  -7.7002403313655141e-02  -4.1933503159216085e-03  -1.7076496134859509e-01  -2.4422647424070354e-02  -9.1675464941400331e-02  -1.5169447739343189e-01  -9.3441365682232855e-03  -1.5957651665856590e-01  -4.9224125801557148e-02  -1.2989443808633491e-01  -9.8518749240314119e-02  -7.1208533804554136e-03  -2.4363267115399240e-01  -9.0937626491120443e-02  -7.2494754577661418e-03  -1.7040605077789966e-01  -1.5700268249637822e-01  -2.7120470583877870e-02  -6.7904522225547354e-02  -3.1818255756636976e-01  -1.0500115949572363e-01  -3.9677757487713530e-02  -2.0195343658871424e-02  -1.1186760485848700e-01  -1.8510122687545039e-01  -1.8890190618746236e-01  -7.5898399881285383e-02  -1.2706987960412197e-03  -5.3511912951624822e-02  -1.2405278677576009e-01  -1.6142713469223641e-01  -5.7228022879708219e-02  -7.0681252190907713e-03  -7.7002403313655182e-02  -5.9306902024233048e-02  -2.1286190583227650e-03  -1.4727474985962785e-01  -1.2397369369353060e-02  -7.0608027585308861e-02  -1.2517964192713801e-01  -7.7108652195344365e-03  -1.2290510986115771e-01  -2.4987040055451132e-02  -1.1202632393814130e-01  -5.0009865962978697e-02  -5.4844489988627012e-03  -2.1011886992783491e-01  -4.6161553479724775e-02  -6.2522468088551091e-03  -1.3124596795577154e-01  -1.0691059280269305e-01  -1.8467618139437002e-02  -5.2299755245674678e-02  -2.7441376852259791e-01  -5.3300452480670814e-02  -3.4219735494011291e-02  -1.5554362152096709e-02  -7.6175972032287820e-02  -1.2604422790175376e-01  -1.4549139196106087e-01  -6.5457912261309911e-02  -6.4502926559014849e-04  -4.6150882079215041e-02  -9.5544894114212631e-02  0.0000000000000000e+00  -3.8969282267752502e-02  -5.4438380079663146e-03  -5.9306902024233082e-02  -4.0384889938732460e-02  0.0000000000000000e+00  -1.2153244316549699e-01  0.0000000000000000e+00  -4.8080363760335185e-02  -9.6412792844412676e-02  -5.9388734431344552e-03  -8.3691934079149280e-02  0.0000000000000000e+00  -9.2445126269292147e-02  0.0000000000000000e+00  -3.7346221372878382e-03  -1.7339197412891522e-01  0.0000000000000000e+00  -5.1594100867805304e-03  -8.9371621006784238e-02  -5.4269714722458534e-02  -9.3744907941928496e-03  -3.5613390471082050e-02  -2.2644870053141877e-01  0.0000000000000000e+00  -2.8238432338389016e-02  -1.0591704879862754e-02  -3.8668275635958343e-02  -6.3982287548109223e-02  -9.9072007655695987e-02  -5.4016455700737168e-02  0.0000000000000000e+00  -3.8084121403537986e-02  -2.5092606777840316e-02  -5.4496606043015580e-02  -1.9781499439563647e-02  -3.7069681823234850e-03  -4.0384889938732488e-02  -2.0500087022412322e-02  -6.5431164834277161e-02  -9.3603736888867070e-02  -1.1234482116730603e-02  -2.4406446139916042e-02  -6.5652055575529292e-02  -4.0440613516289584e-03  -4.2483511390012843e-02  -6.6445163748067054e-02  -7.1200817251615645e-02  -2.3849675927073302e-01  -1.8957604917675091e-03  -1.3354571258723738e-01  -1.8830912552150084e-01  -3.9737542641772395e-03  -4.5366621297040340e-02  0.0000000000000000e+00  0.0000000000000000e+00  -1.8077989191698323e-02  -1.7440976278658765e-01  -2.2607999074679475e-01  -2.1749112598330868e-02  -5.3765374149168897e-03  0.0000000000000000e+00  0.0000000000000000e+00  -5.0290709755754087e-02  -4.1603229354944642e-02  -1.2529287414166645e-03  -6.1399725415784610e-02  -1.7086749238476650e-02  -4.7000122037914982e-02  0.0000000000000000e+00  -1.8817228533303818e-03  -2.0500087022412340e-02  0.0000000000000000e+00  -5.6430536790980444e-02  -6.3739235790235216e-02  -9.6890810062984535e-03  0.0000000000000000e+00  -3.3326148827950541e-02  -2.0528373299553457e-03  0.0000000000000000e+00  -5.7305051300321090e-02  -4.8484022434343063e-02  -2.0568944756897029e-01  0.0000000000000000e+00  -9.0937626491120443e-02  -1.6240556106150209e-01  -2.7059182510796799e-03  0.0000000000000000e+00  -2.3943715699871695e-01  -7.2494754577661514e-03  0.0000000000000000e+00  -1.1876390156914229e-01  -1.9498071397405620e-01  -1.4810005051179374e-02  0.0000000000000000e+00  -2.6542564165233434e-01  -3.3768741402378022e-01  0.0000000000000000e+00  -2.8329617316864234e-02  -8.6935582682585704e-03  -5.0667603554467318e-02  -8.6735372276689413e-03  -3.8784921826644746e-02  -9.1437632359364612e-02  0.0000000000000000e+00  0.0000000000000000e+00  -6.1133492400608461e-02  -4.6566984577363232e-02  -3.2355167549650413e-02  -7.9955164605352309e-03  -1.7588963208951106e-01  0.0000000000000000e+00  0.0000000000000000e+00  -2.3719588589399926e-01  -4.7288641786118600e-02  -2.4611350448360790e-02  -1.6973677511076865e-01  -8.7948288341041653e-03  -4.6161553479724775e-02  -1.3401852414130813e-01  -1.3735721381641149e-03  -2.8642613958832780e-01  -2.0650048537827048e-01  -6.2522468088551178e-03  -1.6083199779167018e-01  -6.0286664665478704e-02  -1.6089983219802351e-01  -7.5178214627337515e-03  -7.5898399881285120e-02  -2.2891402704610145e-01  -2.9123556166521497e-01  -2.0408445062935870e-01  -3.5315568966180606e-02  -7.4976834195758981e-03  -3.9023958610322984e-02  0.0000000000000000e+00  -2.9871971000968119e-02  -7.8859587629291072e-02  -1.0789412882571865e-02  -1.3364770045866589e-01  -5.2724046726223467e-02  -3.5865680459922757e-02  0.0000000000000000e+00  -6.1581105387916602e-03  -1.5169447739343181e-01  -1.2881298869318825e-01  -6.6445163748067054e-02  -2.0456752068394368e-01  -3.6421497571245909e-02  0.0000000000000000e+00  -1.3073049487039179e-01  -7.5850233348329094e-03  0.0000000000000000e+00  -1.0322045986415834e-01  0.0000000000000000e+00  -2.4702572312254314e-01  -1.7040605077789958e-01  -5.1594100867805373e-03  -1.3870815217086291e-01  0.0000000000000000e+00  -1.2392432149181394e-01  0.0000000000000000e+00  -6.5457912261309675e-02  -1.8890190618746211e-01  -2.4033019495592423e-01  -3.0457604092606026e-02  -3.0457604092606057e-02  -6.1871555370557503e-03  -2.6573269209165459e-02  -8.6935582682585704e-03  -2.0341245621532805e-02  -6.5075638293367696e-02  -9.3052349314755398e-03  -1.1526329229908162e-01  -4.3508355765785531e-02  -2.4422647424070354e-02  -1.5778816212311830e-01  -4.1933503159216111e-03  -1.2517964192713793e-01  -1.1109363735183164e-01  -5.7305051300321090e-02  -1.6881095099278304e-01  -2.4801129727153357e-02  -1.9144623944309064e-01  -8.9020610869533556e-02  -6.2592292176912225e-03  -2.8056480771813558e-01  -7.0287719789108194e-02  -4.9476936123929775e-02  -2.0384784007048617e-01  -1.3124596795577145e-01  -3.9737542641772447e-03  -1.1446320999603768e-01  -3.3112516584274937e-01  -8.4385963747256182e-02  -5.4292211340530496e-03  -5.4016455700736980e-02  -1.4549139196106067e-01  -2.8963071689063666e-03  -2.5133887797262930e-02  -2.5133887797262954e-02  -4.7653191517956850e-03  -1.3489063164077542e-02  -7.4976834195758981e-03  -1.0325577363670145e-02  -5.0120961662826147e-02  -7.6787632403316451e-03  -9.5116301563967248e-02  -3.3509938412264267e-02  -1.2397369369353060e-02  -1.3608302267614947e-01  -2.1286190583227659e-03  -9.6412792844412606e-02  -9.1675464941400317e-02  -4.7288641786118600e-02  -1.3001742933095159e-01  -1.2589493704999774e-02  -1.6511113757107737e-01  -4.5188442320440315e-02  -4.8208299739522691e-03  -2.4197066863004299e-01  -3.5679294272427969e-02  -4.2670951546070736e-02  -1.5700268249637811e-01  -8.9371621006784183e-02  -2.7059182510796834e-03  -8.8159045542548609e-02  -2.8557600802056993e-01  -4.2835813169562378e-02  -4.6823843611454447e-03  -4.1603229354944496e-02  0.0000000000000000e+00  -1.9722332857186201e-03  -1.9358006463884001e-02  -1.9358006463884019e-02  -3.2449324260702085e-03  0.0000000000000000e+00  -6.1871555370557503e-03  0.0000000000000000e+00  -3.4129746307598317e-02  -5.9141486442524146e-03  -7.3258144356661392e-02  -2.2818510636081337e-02  0.0000000000000000e+00  -1.1229692961584750e-01  0.0000000000000000e+00  -6.5652055575529250e-02  -7.0608027585308847e-02  -3.6421497571245909e-02  -8.8535050633768264e-02  0.0000000000000000e+00  -1.3625119011896739e-01  0.0000000000000000e+00  -3.2827323847037957e-03  -1.9967636381000142e-01  0.0000000000000000e+00  -3.5212451547419810e-02  -1.0691059280269298e-01  -4.5366621297040312e-02  -1.3735721381641169e-03  -6.0031686529247091e-02  -2.3565988057877885e-01  0.0000000000000000e+00  -3.8639455289675327e-03  -2.8963071689063653e-03  -2.3522175938498775e-02  -1.0011406257901736e-03  -1.3181787174750626e-02  -1.3181787174750636e-02  -1.6471853016612353e-03  -7.1192935295658677e-02  -4.7653191517956850e-03  -9.1437632359364668e-02  -1.7324865077509761e-02  -4.0272250602779031e-03  -4.9884954296730601e-02  -1.1583081060049327e-02  -1.2081689557616160e-01  -8.6490586212238665e-02  -1.1249622009931867e-02  -3.3326148827950527e-02  -4.8080363760335178e-02  -2.4801129727153357e-02  -4.4941963325377740e-02  -1.0834519301030965e-02  -1.0494004908075093e-01  -1.9144623944309072e-01  -1.6663732316669309e-03  -1.5378983038747371e-01  -1.2294464421497667e-01  -2.7120470583877818e-02  -5.4269714722458492e-02  0.0000000000000000e+00  0.0000000000000000e+00  -3.0473149730474887e-02  -1.8150417191004262e-01  -1.6083199779167043e-01  -2.7996860838864334e-03  -1.9722332857186197e-03  -2.0286495251357752e-02  0.0000000000000000e+00  -6.6913091654642754e-03  -6.6913091654642806e-03  0.0000000000000000e+00  -6.1399725415784576e-02  -3.2449324260702085e-03  -7.