<?xml version="1.0"?>
<VTKFile type="UnstructuredGrid"  version="0.1"  >
<UnstructuredGrid>
<Piece  NumberOfPoints="1089" NumberOfCells="2048">
<Points>
<DataArray  type="Float64"  NumberOfComponents="3"  format="ascii">0 0 0  0.03125 0 0  0.0625 0 0  0.09375 0 0  0.125 0 0  0.15625 0 0  0.1875 0 0  0.21875 0 0  0.25 0 0  0.28125 0 0  0.3125 0 0  0.34375 0 0  0.375 0 0  0.40625 0 0  0.4375 0 0  0.46875 0 0  0.5 0 0  0.53125 0 0  0.5625 0 0  0.59375 0 0  0.625 0 0  0.65625 0 0  0.6875 0 0  0.71875 0 0  0.75 0 0  0.78125 0 0  0.8125 0 0  0.84375 0 0  0.875 0 0  0.90625 0 0  0.9375 0 0  0.96875 0 0  1 0 0  0 0.03125 0  0.03125 0.03125 0  0.0625 0.03125 0  0.09375 0.03125 0  0.125 0.03125 0  0.15625 0.03125 0  0.1875 0.03125 0  0.21875 0.03125 0  0.25 0.03125 0  0.28125 0.03125 0  0.3125 0.03125 0  0.34375 0.03125 0  0.375 0.03125 0  0.40625 0.03125 0  0.4375 0.03125 0  0.46875 0.03125 0  0.5 0.03125 0  0.53125 0.03125 0  0.5625 0.03125 0  0.59375 0.03125 0  0.625 0.03125 0  0.65625 0.03125 0  0.6875 0.03125 0  0.71875 0.03125 0  0.75 0.03125 0  0.78125 0.03125 0  0.8125 0.03125 0  0.84375 0.03125 0  0.875 0.03125 0  0.90625 0.03125 0  0.9375 0.03125 0  0.96875 0.03125 0  1 0.03125 0  0 0.0625 0  0.03125 0.0625 0  0.0625 0.0625 0  0.09375 0.0625 0  0.125 0.0625 0  0.15625 0.0625 0  0.1875 0.0625 0  0.21875 0.0625 0  0.25 0.0625 0  0.28125 0.0625 0  0.3125 0.0625 0  0.34375 0.0625 0  0.375 0.0625 0  0.40625 0.0625 0  0.4375 0.0625 0  0.46875 0.0625 0  0.5 0.0625 0  0.53125 0.0625 0  0.5625 0.0625 0  0.59375 0.0625 0  0.625 0.0625 0  0.65625 0.0625 0  0.6875 0.0625 0  0.71875 0.0625 0  0.75 0.0625 0  0.78125 0.0625 0  0.8125 0.0625 0  0.84375 0.0625 0  0.875 0.0625 0  0.90625 0.0625 0  0.9375 0.0625 0  0.96875 0.0625 0  1 0.0625 0  0 0.09375 0  0.03125 0.09375 0  0.0625 0.09375 0  0.09375 0.09375 0  0.125 0.09375 0  0.15625 0.09375 0  0.1875 0.09375 0  0.21875 0.09375 0  0.25 0.09375 0  0.28125 0.09375 0  0.3125 0.09375 0  0.34375 0.09375 0  0.375 0.09375 0  0.40625 0.09375 0  0.4375 0.09375 0  0.46875 0.09375 0  0.5 0.09375 0  0.53125 0.09375 0  0.5625 0.09375 0  0.59375 0.09375 0  0.625 0.09375 0  0.65625 0.09375 0  0.6875 0.09375 0  0.71875 0.09375 0  0.75 0.09375 0  0.78125 0.09375 0  0.8125 0.09375 0  0.84375 0.09375 0  0.875 0.09375 0  0.90625 0.09375 0  0.9375 0.09375 0  0.96875 0.09375 0  1 0.09375 0  0 0.125 0  0.03125 0.125 0  0.0625 0.125 0  0.09375 0.125 0  0.125 0.125 0  0.15625 0.125 0  0.1875 0.125 0  0.21875 0.125 0  0.25 0.125 0  0.28125 0.125 0  0.3125 0.125 0  0.34375 0.125 0  0.375 0.125 0  0.40625 0.125 0  0.4375 0.125 0  0.46875 0.125 0  0.5 0.125 0  0.53125 0.125 0  0.5625 0.125 0  0.59375 0.125 0  0.625 0.125 0  0.65625 0.125 0  0.6875 0.125 0  0.71875 0.125 0  0.75 0.125 0  0.78125 0.125 0  0.8125 0.125 0  0.84375 0.125 0  0.875 0.125 0  0.90625 0.125 0  0.9375 0.125 0  0.96875 0.125 0  1 0.125 0  0 0.15625 0  0.03125 0.15625 0  0.0625 0.15625 0  0.09375 0.15625 0  0.125 0.15625 0  0.15625 0.15625 0  0.1875 0.15625 0  0.21875 0.15625 0  0.25 0.15625 0  0.28125 0.15625 0  0.3125 0.15625 0  0.34375 0.15625 0  0.375 0.15625 0  0.40625 0.15625 0  0.4375 0.15625 0  0.46875 0.15625 0  0.5 0.15625 0  0.53125 0.15625 0  0.5625 0.15625 0  0.59375 0.15625 0  0.625 0.15625 0  0.65625 0.15625 0  0.6875 0.15625 0  0.71875 0.15625 0  0.75 0.15625 0  0.78125 0.15625 0  0.8125 0.15625 0  0.84375 0.15625 0  0.875 0.15625 0  0.90625 0.15625 0  0.9375 0.15625 0  0.96875 0.15625 0  1 0.15625 0  0 0.1875 0  0.03125 0.1875 0  0.0625 0.1875 0  0.09375 0.1875 0  0.125 0.1875 0  0.15625 0.1875 0  0.1875 0.1875 0  0.21875 0.1875 0  0.25 0.1875 0  0.28125 0.1875 0  0.3125 0.1875 0  0.34375 0.1875 0  0.375 0.1875 0  0.40625 0.1875 0  0.4375 0.1875 0  0.46875 0.1875 0  0.5 0.1875 0  0.53125 0.1875 0  0.5625 0.1875 0  0.59375 0.1875 0  0.625 0.1875 0  0.65625 0.1875 0  0.6875 0.1875 0  0.71875 0.1875 0  0.75 0.1875 0  0.78125 0.1875 0  0.8125 0.1875 0  0.84375 0.1875 0  0.875 0.1875 0  0.90625 0.1875 0  0.9375 0.1875 0  0.96875 0.1875 0  1 0.1875 0  0 0.21875 0  0.03125 0.21875 0  0.0625 0.21875 0  0.09375 0.21875 0  0.125 0.21875 0  0.15625 0.21875 0  0.1875 0.21875 0  0.21875 0.21875 0  0.25 0.21875 0  0.28125 0.21875 0  0.3125 0.21875 0  0.34375 0.21875 0  0.375 0.21875 0  0.40625 0.21875 0  0.4375 0.21875 0  0.46875 0.21875 0  0.5 0.21875 0  0.53125 0.21875 0  0.5625 0.21875 0  0.59375 0.21875 0  0.625 0.21875 0  0.65625 0.21875 0  0.6875 0.21875 0  0.71875 0.21875 0  0.75 0.21875 0  0.78125 0.21875 0  0.8125 0.21875 0  0.84375 0.21875 0  0.875 0.21875 0  0.90625 0.21875 0  0.9375 0.21875 0  0.96875 0.21875 0  1 0.21875 0  0 0.25 0  0.03125 0.25 0  0.0625 0.25 0  0.09375 0.25 0  0.125 0.25 0  0.15625 0.25 0  0.1875 0.25 0  0.21875 0.25 0  0.25 0.25 0  0.28125 0.25 0  0.3125 0.25 0  0.34375 0.25 0  0.375 0.25 0  0.40625 0.25 0  0.4375 0.25 0  0.46875 0.25 0  0.5 0.25 0  0.53125 0.25 0  0.5625 0.25 0  0.59375 0.25 0  0.625 0.25 0  0.65625 0.25 0  0.6875 0.25 0  0.71875 0.25 0  0.75 0.25 0  0.78125 0.25 0  0.8125 0.25 0  0.84375 0.25 0  0.875 0.25 0  0.90625 0.25 0  0.9375 0.25 0  0.96875 0.25 0  1 0.25 0  0 0.28125 0  0.03125 0.28125 0  0.0625 0.28125 0  0.09375 0.28125 0  0.125 0.28125 0  0.15625 0.28125 0  0.1875 0.28125 0  0.21875 0.28125 0  0.25 0.28125 0  0.28125 0.28125 0  0.3125 0.28125 0  0.34375 0.28125 0  0.375 0.28125 0  0.40625 0.28125 0  0.4375 0.28125 0  0.46875 0.28125 0  0.5 0.28125 0  0.53125 0.28125 0  0.5625 0.28125 0  0.59375 0.28125 0  0.625 0.28125 0  0.65625 0.28125 0  0.6875 0.28125 0  0.71875 0.28125 0  0.75 0.28125 0  0.78125 0.28125 0  0.8125 0.28125 0  0.84375 0.28125 0  0.875 0.28125 0  0.90625 0.28125 0  0.9375 0.28125 0  0.96875 0.28125 0  1 0.28125 0  0 0.3125 0  0.03125 0.3125 0  0.0625 0.3125 0  0.09375 0.3125 0  0.125 0.3125 0  0.15625 0.3125 0  0.1875 0.3125 0  0.21875 0.3125 0  0.25 0.3125 0  0.28125 0.3125 0  0.3125 0.3125 0  0.34375 0.3125 0  0.375 0.3125 0  0.40625 0.3125 0  0.4375 0.3125 0  0.46875 0.3125 0  0.5 0.3125 0  0.53125 0.3125 0  0.5625 0.3125 0  0.59375 0.3125 0  0.625 0.3125 0  0.65625 0.3125 0  0.6875 0.3125 0  0.71875 0.3125 0  0.75 0.3125 0  0.78125 0.3125 0  0.8125 0.3125 0  0.84375 0.3125 0  0.875 0.3125 0  0.90625 0.3125 0  0.9375 0.3125 0  0.96875 0.3125 0  1 0.3125 0  0 0.34375 0  0.03125 0.34375 0  0.0625 0.34375 0  0.09375 0.34375 0  0.125 0.34375 0  0.15625 0.34375 0  0.1875 0.34375 0  0.21875 0.34375 0  0.25 0.34375 0  0.28125 0.34375 0  0.3125 0.34375 0  0.34375 0.34375 0  0.375 0.34375 0  0.40625 0.34375 0  0.4375 0.34375 0  0.46875 0.34375 0  0.5 0.34375 0  0.53125 0.34375 0  0.5625 0.34375 0  0.59375 0.34375 0  0.625 0.34375 0  0.65625 0.34375 0  0.6875 0.34375 0  0.71875 0.34375 0  0.75 0.34375 0  0.78125 0.34375 0  0.8125 0.34375 0  0.84375 0.34375 0  0.875 0.34375 0  0.90625 0.34375 0  0.9375 0.34375 0  0.96875 0.34375 0  1 0.34375 0  0 0.375 0  0.03125 0.375 0  0.0625 0.375 0  0.09375 0.375 0  0.125 0.375 0  0.15625 0.375 0  0.1875 0.375 0  0.21875 0.375 0  0.25 0.375 0  0.28125 0.375 0  0.3125 0.375 0  0.34375 0.375 0  0.375 0.375 0  0.40625 0.375 0  0.4375 0.375 0  0.46875 0.375 0  0.5 0.375 0  0.53125 0.375 0  0.5625 0.375 0  0.59375 0.375 0  0.625 0.375 0  0.65625 0.375 0  0.6875 0.375 0  0.71875 0.375 0  0.75 0.375 0  0.78125 0.375 0  0.8125 0.375 0  0.84375 0.375 0  0.875 0.375 0  0.90625 0.375 0  0.9375 0.375 0  0.96875 0.375 0  1 0.375 0  0 0.40625 0  0.03125 0.40625 0  0.0625 0.40625 0  0.09375 0.40625 0  0.125 0.40625 0  0.15625 0.40625 0  0.1875 0.40625 0  0.21875 0.40625 0  0.25 0.40625 0  0.28125 0.40625 0  0.3125 0.40625 0  0.34375 0.40625 0  0.375 0.40625 0  0.40625 0.40625 0  0.4375 0.40625 0  0.46875 0.40625 0  0.5 0.40625 0  0.53125 0.40625 0  0.5625 0.40625 0  0.59375 0.40625 0  0.625 0.40625 0  0.65625 0.40625 0  0.6875 0.40625 0  0.71875 0.40625 0  0.75 0.40625 0  0.78125 0.40625 0  0.8125 0.40625 0  0.84375 0.40625 0  0.875 0.40625 0  0.90625 0.40625 0  0.9375 0.40625 0  0.96875 0.40625 0  1 0.40625 0  0 0.4375 0  0.03125 0.4375 0  0.0625 0.4375 0  0.09375 0.4375 0  0.125 0.4375 0  0.15625 0.4375 0  0.1875 0.4375 0  0.21875 0.4375 0  0.25 0.4375 0  0.28125 0.4375 0  0.3125 0.4375 0  0.34375 0.4375 0  0.375 0.4375 0  0.40625 0.4375 0  0.4375 0.4375 0  0.46875 0.4375 0  0.5 0.4375 0  0.53125 0.4375 0  0.5625 0.4375 0  0.59375 0.4375 0  0.625 0.4375 0  0.65625 0.4375 0  0.6875 0.4375 0  0.71875 0.4375 0  0.75 0.4375 0  0.78125 0.4375 0  0.8125 0.4375 0  0.84375 0.4375 0  0.875 0.4375 0  0.90625 0.4375 0  0.9375 0.4375 0  0.96875 0.4375 0  1 0.4375 0  0 0.46875 0  0.03125 0.46875 0  0.0625 0.46875 0  0.09375 0.46875 0  0.125 0.46875 0  0.15625 0.46875 0  0.1875 0.46875 0  0.21875 0.46875 0  0.25 0.46875 0  0.28125 0.46875 0  0.3125 0.46875 0  0.34375 0.46875 0  0.375 0.46875 0  0.40625 0.46875 0  0.4375 0.46875 0  0.46875 0.46875 0  0.5 0.46875 0  0.53125 0.46875 0  0.5625 0.46875 0  0.59375 0.46875 0  0.625 0.46875 0  0.65625 0.46875 0  0.6875 0.46875 0  0.71875 0.46875 0  0.75 0.46875 0  0.78125 0.46875 0  0.8125 0.46875 0  0.84375 0.46875 0  0.875 0.46875 0  0.90625 0.46875 0  0.9375 0.46875 0  0.96875 0.46875 0  1 0.46875 0  0 0.5 0  0.03125 0.5 0  0.0625 0.5 0  0.09375 0.5 0  0.125 0.5 0  0.15625 0.5 0  0.1875 0.5 0  0.21875 0.5 0  0.25 0.5 0  0.28125 0.5 0  0.3125 0.5 0  0.34375 0.5 0  0.375 0.5 0  0.40625 0.5 0  0.4375 0.5 0  0.46875 0.5 0  0.5 0.5 0  0.53125 0.5 0  0.5625 0.5 0  0.59375 0.5 0  0.625 0.5 0  0.65625 0.5 0  0.6875 0.5 0  0.71875 0.5 0  0.75 0.5 0  0.78125 0.5 0  0.8125 0.5 0  0.84375 0.5 0  0.875 0.5 0  0.90625 0.5 0  0.9375 0.5 0  0.96875 0.5 0  1 0.5 0  0 0.53125 0  0.03125 0.53125 0  0.0625 0.53125 0  0.09375 0.53125 0  0.125 0.53125 0  0.15625 0.53125 0  0.1875 0.53125 0  0.21875 0.53125 0  0.25 0.53125 0  0.28125 0.53125 0  0.3125 0.53125 0  0.34375 0.53125 0  0.375 0.53125 0  0.40625 0.53125 0  0.4375 0.53125 0  0.46875 0.53125 0  0.5 0.53125 0  0.53125 0.53125 0  0.5625 0.53125 0  0.59375 0.53125 0  0.625 0.53125 0  0.65625 0.53125 0  0.6875 0.53125 0  0.71875 0.53125 0  0.75 0.53125 0  0.78125 0.531
[...]
<PointData  Scalars="theta_dt"> 
<DataArray  type="Float64"  Name="theta_dt"  format="ascii">-7.8631051546428391e-04  -3.7063286286777332e-03  -4.6886713686839802e-03  -3.9341593126484596e-03  -3.1706559198651217e-03  -9.0474216152736260e-04  -1.0094617085771836e-03  -3.5592776447778891e-03  -4.1901977681840933e-03  -7.0766121066820091e-03  -9.9295680058819787e-03  -1.0643413963761570e-02  -6.4432070850878008e-03  -4.6482322302514026e-03  -3.8116567518891014e-03  -1.1360733908725303e-03  -9.4578745607498552e-04  -1.3225729320155398e-03  -1.0037418129327420e-03  -6.7372845668937928e-03  -3.7942096890450972e-03  -7.2814328460542614e-03  -1.1714137397692287e-02  -7.0884547587813929e-03  -8.7155579653140271e-03  -1.4473628127807552e-02  -1.0604511453618511e-02  -8.5823080723124827e-03  -1.4101944318917330e-02  -8.8159552426114226e-03  -1.1382067228847784e-02  -1.3906339397959743e-02  -1.4806245102951639e-02  -7.0854400169519213e-04  -8.4792213137844553e-04  -4.0477515414661588e-03  -5.1543099454249780e-03  -4.0529122703913140e-03  -2.9041928967922783e-03  -8.5970575648360644e-04  -1.0670242215100780e-03  -3.6002780931832941e-03  -4.6092349344546441e-03  -6.4432070850878043e-03  -1.0495781545137731e-02  -1.1084211873587617e-02  -5.9017177271855062e-03  -5.0188209246153533e-03  -4.1901977681840907e-03  -1.1410935255902288e-03  -1.0198949394852985e-03  -1.3037092304784917e-03  -1.0962054036697815e-03  -7.0121222143294075e-03  -3.9087382546326944e-03  -7.5755938249616539e-03  -1.1131029127718385e-02  -7.7089385743949537e-03  -8.8159552426114174e-03  -1.4806245102951638e-02  -9.6553353923881959e-03  -9.3335554796381039e-03  -1.4685977562520042e-02  -9.1721090490117143e-03  -1.2289523058195057e-02  -1.4473628127807548e-02  -4.4615012493310296e-04  -7.3788841280523826e-04  -8.9958246814158475e-04  -4.3649144286259647e-03  -5.6697623305153894e-03  -4.3112854714007802e-03  -2.7053700939212526e-03  -8.0355623501848273e-04  -1.1105519104305801e-03  -3.7457249235833766e-03  -5.0338325820758435e-03  -5.9017177271855088e-03  -1.0923941567060879e-02  -1.1315719487587847e-02  -5.4976825607994592e-03  -5.3727306345146700e-03  -4.6092349344546433e-03  -1.1248182433947983e-03  -1.0820328576820770e-03  -1.2613124546713794e-03  -1.1820989342351867e-03  -7.1732670813714179e-03  -4.1579203605804508e-03  -8.0561125985049494e-03  -1.0404033927067229e-02  -8.4745241537000290e-03  -9.1721090490117160e-03  -1.4871671637608008e-02  -8.8438976575905791e-03  -1.0260484058702000e-02  -1.4992712553111617e-02  -9.7538945423830768e-03  -1.3156137270109801e-02  -2.3922540711990492e-03  -4.3790814784780836e-04  -7.5330013425148898e-04  -9.3683875386185050e-04  -4.6308503453575227e-03  -6.1920545942732441e-03  -4.6886713686839776e-03  -2.5911896337231315e-03  -7.4078094537155222e-04  -1.1360733908725301e-03  -3.9833156904457928e-03  -5.4282601695537025e-03  -5.4976825607994601e-03  -1.1174983556574605e-02  -5.9255397288450829e-03  -5.2656522274170808e-03  -5.6790997359936314e-03  -5.0338325820758409e-03  -1.0882390232941205e-03  -1.1268453420647479e-03  -1.1985266345661051e-03  -1.2541192610671585e-03  -7.2049646525000404e-03  -4.5218815309828126e-03  -8.6822952357112973e-03  -9.5912516788489496e-03  -9.3220117386110281e-03  -9.7538945423830698e-03  -1.4659558741345034e-02  -8.2384390730286562e-03  -1.1286575045902808e-02  -8.8795956279807513e-03  -1.0512041766978158e-02  -4.6256018303060028e-03  -2.5781983395858936e-03  -4.4295255073345616e-04  -5.6644164595109144e-04  -9.5640580175691272e-04  -4.8226374129188235e-03  -6.6772350438270966e-03  -5.1543099454249772e-03  -2.5717634073953574e-03  -6.7647640432707710e-04  -1.1410935255902297e-03  -4.2929294270178976e-03  -5.7589812794523179e-03  -5.2656522274170826e-03  -1.1224364101328843e-02  -5.8160739684791872e-03  -5.2261754748853997e-03  -5.9107702844906429e-03  -5.4282601695537017e-03  -1.0340684810981457e-03  -1.1503809149556192e-03  -1.1202478787399818e-03  -1.3060587187292579e-03  -7.1022010925482900e-03  -4.9709559733379484e-03  -9.4008823655938253e-03  -8.7586694680024182e-03  -1.0180745196895852e-02  -1.0512041766978161e-02  -1.4182828186050997e-02  -7.8907347915382221e-03  -1.2326281913167855e-02  -8.7155579653140167e-03  -3.3053472654244196e-03  -4.8142964761076854e-03  -2.7915820238322850e-03  -4.6084729187686828e-04  -5.5597745731775694e-04  -2.9159155326764800e-03  -4.9233642208674801e-03  -7.0840509509080551e-03  -5.6697623305153868e-03  -2.6493923204546632e-03  -6.1592715490782826e-04  -1.1248182433947990e-03  -4.6482322302514043e-03  -5.9974899872178048e-03  -5.2261754748854014e-03  -1.1064272321718666e-02  -5.8830711697277363e-03  -5.3839280583485270e-03  -6.0466050949084665e-03  -5.7589812794523153e-03  -9.6653089636297078e-04  -7.8968344050257778e-04  -1.0327320559517432e-03  -1.3333373869075253e-03  -6.8712366869750630e-03  -5.4680722002949204e-03  -1.0150384660049144e-02  -7.9747088467500282e-03  -1.0978460794557323e-02  -1.1382067228847791e-02  -1.3476833017466508e-02  -7.8315777163639796e-03  -1.3292111737324990e-02  -3.9646538655041411e-04  -3.0894668135024034e-03  -4.9249333335141064e-03  -3.0141459333308286e-03  -4.9007876608206564e-04  -5.6238193803781814e-04  -2.8620482183804737e-03  -4.4606265937167985e-03  -7.3774375337181744e-03  -6.1920545942732424e-03  -2.8182911094974581e-03  -5.6416442320896324e-04  -1.0882390232941209e-03  -5.0188209246153567e-03  -6.1227550590845399e-03  -5.3839280583485253e-03  -1.0704460898951823e-02  -6.1207400476611211e-03  -5.7271535302154258e-03  -6.0733241188773816e-03  -5.9974899872178031e-03  -8.9102372669923606e-04  -7.7509518319292150e-04  -9.4308428450888451e-04  -4.3019489797170843e-03  -6.5291991300387214e-03  -5.9717849913077719e-03  -1.0866154308809776e-02  -7.3045115496806071e-03  -1.1647332334524974e-02  -1.2289523058195060e-02  -1.2596627529612990e-02  -8.0679746041618979e-03  -4.8145364039577597e-04  -3.9349307366755049e-04  -2.8481119890105861e-03  -4.9466958613653559e-03  -3.2266929695534997e-03  -5.2817143303920976e-04  -5.8510148031893467e-04  -2.8950170598204365e-03  -4.3782229808589463e-03  -7.5315245342505834e-03  -6.6772350438270957e-03  -3.0649886029059338e-03  -5.2554138545330526e-04  -1.0340684810981459e-03  -5.3727306345146735e-03  -5.9255397288450863e-03  -5.7271535302154276e-03  -1.0171612472825208e-02  -6.5089776655740984e-03  -6.2284766247347797e-03  -5.9867010142130020e-03  -6.1227550590845373e-03  -8.1367714784468133e-04  -7.8402375051455492e-04  -8.5867181246870221e-04  -4.2224767058535520e-03  -6.1027608935405658e-03  -6.4397061445549235e-03  -1.1485774788335741e-02  -6.8044402694583525e-03  -1.2129707610502067e-02  -1.3156137270109803e-02  -1.1612555840183860e-02  -3.8075671320850695e-04  -5.1078659005974005e-04  -4.0537069799229911e-04  -2.6008775866668099e-03  -4.8761417224861192e-03  -3.4106886121937712e-03  -5.7188535704774939e-04  -6.2221437895333806e-04  -3.0119722072859336e-03  -4.4286571204089848e-03  -4.4606265937167933e-03  -7.0840509509080534e-03  -3.3693769505979318e-03  -5.0336085001416301e-04  -9.6653089636297099e-04  -5.6790997359936340e-03  -5.8160739684791872e-03  -6.2284766247347806e-03  -9.5072791604441393e-03  -7.0149051523501439e-03  -6.8470354365501871e-03  -5.7920128009289395e-03  -6.8132549775540123e-04  -7.4084749664553968e-04  -8.1569735086410502e-04  -7.8650873556580607e-04  -4.2711167546497985e-03  -5.6260019984656507e-03  -6.8320504127043326e-03  -1.1954320133342125e-02  -6.5172580746440207e-03  -1.2383051709248428e-02  -1.3906339397959750e-02  -2.1540205596484287e-03  -4.1226990946594742e-04  -5.3194086086346022e-04  -4.3121308436736884e-04  -2.3680813136605448e-03  -4.7175690265360637e-03  -3.5498226542553142e-03  -6.1747994813011662e-04  -6.7057763554349771e-04  -3.2030211500397809e-03  -4.6075694500737046e-03  -4.3782229808589429e-03  -7.3774375337181718e-03  -3.7063286286777328e-03  -4.9958713863864094e-04  -8.9102372669923606e-04  -5.9107702844906464e-03  -5.8830711697277389e-03  -6.8470354365501897e-03  -8.7645530424178431e-03  -7.5954913248972335e-03  -7.5317673956169888e-03  -5.5036970291947084e-03  -6.6873899642702248e-04  -6.7858641610529726e-04  -8.6743691078193118e-04  -7.3266387165870869e-04  -4.4436646462720315e-03  -5.1376289123501936e-03  -7.1150003714299742e-03  -1.2229041147834477e-02  -6.4683979955719078e-03  -8.8795956279807530e-03  -1.4917948728535304e-03  -2.0133361187939210e-03  -4.4513887123601582e-04  -5.4305111036899120e-04  -4.6895907401332007e-04  -2.1690669388219328e-03  -4.4827370948150045e-03  -3.6314007674367551e-03  -6.6102247586597557e-04  -7.2607775911757684e-04  -3.4519844318007392e-03  -4.8998268852426348e-03  -4.4286571204089856e-03  -7.5315245342505817e-03  -4.0477515414661571e-03  -5.1466722199288871e-04  -8.1367714784468166e-04  -6.0466050949084709e-03  -6.1207400476611289e-03  -7.5317673956169914e-03  -8.0037335796953584e-03  -8.2010555638840996e-03  -8.2255855159960884e-03  -5.1442368858285520e-03  -6.7644241309077098e-04  -6.3212997948592557e-04  -9.3486073657408420e-04  -7.0174170754353036e-04  -4.7255256244607699e-03  -4.6777761038152331e-03  -7.2636060439293911e-03  -1.2283079412020264e-02  -6.6636471791427215e-03  -1.5589782372242684e-03  -1.6399471289541762e-03  -1.8560506016066796e-03  -4.7652850859314469e-04  -4.4615012493310285e-04  -5.1553206209515039e-04  -2.0205713038151172e-03  -4.1899583843904627e-03  -3.6474473725354706e-03  -6.9871594605178339e-04  -7.8396561743216406e-04  -3.7376867164966286e-03  -5.2806788759937537e-03  -4.6075694500737020e-03  -2.9159155326764800e-03  -4.3649144286259638e-03  -5.4747726295341392e-04  -7.4084749664553979e-04  -6.0733241188773825e-03  -6.5089776655741010e-03  -8.2255855159960919e-03  -7.2873448665010431e-03  -8.7793653380478075e-03  -8.8701039416226382e-03  -4.7423596475629761e-03  -7.0376985902293908e-04  -6.0545086000984817e-04  -1.0122341586124789e-03  -6.9648072893472386e-04  -5.0928295891869034e-03  -4.2846541778215914e-03  -7.3339958615881960e-03  -1.2107887300965113e-02  -4.2061843851764883e-04  -1.6801539397726100e-03  -1.8039486476816081e-03  -1.6949334956155465e-03  -5.0370158331774042e-04  -4.3790814784780836e-04  -5.6708740777889016e-04  -1.9352928563852768e-03  -3.8626311361828198e-03  -3.5954242614146745e-03  -7.2721903879366607e-04  -8.3924813266909133e-04  -4.0356805282501032e-03  -5.7177324170578688e-03  -4.8998268852426339e-03  -2.8620482183804720e-03  -4.6308503453575218e-03  -5.9540037068830768e-04  -6.7858641610529715e-04  -5.9867010142130037e-03  -7.0149051523501439e-03  -8.8701039416226434e-03  -6.6749138767060881e-03  -9.2799908957287344e-03  -9.4105221472464695e-03  -4.3306923895027405e-03  -7.4840987501747884e-04  -6.0091177677031049e-04  -1.0929363517579603e-03  -7.1750406327352010e-04  -5.5143358496999202e-03  -3.9913241604152211e-03  -7.1985109150269509e-03  -3.0826550612894665e-04  -3.8410605815376820e-04  -1.8192112932217449e-03  -1.9701264110473797e-03  -1.5432253941672007e-03  -5.2424935101170122e-04  -4.4295255073345644e-04  -6.1932687544816168e-04  -1.9207839078508363e-03  -3.5273299597847782e-03  -3.4785006462564826e-03  -7.4393118552113500e-04  -8.8710456058527579e-04  -4.3202626136547113e-03  -6.1735889419039427e-03  -5.2806788759937511e-03  -2.8950170598204348e-03  -4.8226374129188227e-03  -6.5453042255120503e-04  -6.3212997948592590e-04  -5.7920128009289421e-03  -7.5954913248972404e-03  -9.4105221472464747e-03  -6.2179452341082622e-03  -9.6585545203882531e-03  -9.8002597358624408e-03  -3.9430659002818976e-03  -8.0658200996711841e-04  -6.1905035356982240e-04  -1.1700064032698541e-03  -7.6324495505635220e-04  -5.9539762165311937e-03  -3.8228698589279414e-03  -3.2509158174740958e-04  -3.2103234872623345e-04  -3.4972594767270556e-04  -1.9642511932378309e-03  -2.1244963060857609e-03  -1.4135321968586547e-03  -5.3629707199879444e-04  -4.6084729187686872e-04  -6.6785443399530807e-04  -1.9787629453313022e-03  -3.2116098841799942e-03  -3.3053472654244183e-03  -7.4721850375428656e-04  -9.2329269069020157e-04  -4.5666168541959535e-03  -6.6089288562553002e-03  -5.7177324170578653e-03  -3.0119722072859349e-03  -4.9233642208674792e-03  -7.1998618112810507e-04  -6.0545086000984849e-04  -5.5036970291947093e-03  -8.2010555638840996e-03  -9.8002597358624460e-03  -5.9555161306327582e-03  -9.8805167789503389e-03  -1.0004950405249445e-02  -3.6116892745869642e-03  -8.7333848804369951e-04  -6.5851482029572936e-04  -1.2367236528173545e-03  -8.3005516377983671e-04  -6.3738298090762341e-03  -8.2329295399702438e-04  -3.2045483890938371e-04  -3.2773751043895741e-04  -3.2033485774710758e-04  -2.1027633219648525e-03  -2.2539329495733112e-03  -1.3167609274163626e-03  -5.3866688681161517e-04  -4.9007876608206575e-04  -7.0854400169519235e-04  -2.1049091044670898e-03  -2.9417050757434985e-03  -3.0894668135024025e-03  -7.3656101447972520e-04  -9.4451078605911609e-04  -4.7529052943658051e-03  -6.9857896618989212e-03  -6.1735889419039418e-03  -3.2030211500397791e-03  -5.6644164595109100e-04  -7.8631051546428348e-04  -6.0091177677031081e-04  -5.1442368858285537e-03  -8.7793653380478127e-03  -1.0004950405249451e-02  -5.9108674477472301e-03  -9.9241772728139582e-03  -3.6262676858004974e-03  -3.3644308416275921e-03  -9.4296697345274229e-04  -7.1615753683123228e-04  -1.2871739812684514e-03  -9.1248911461300089e-04  -1.0800333333040779e-03  -8.9913379451421601e-04  -3.1003361027655540e-04  -3.2162787409685989e-04  -2.9840453956992411e-04  -2.2226691488892035e-03  -2.3472797776157720e-03  -1.2611868789705973e-03  -5.3098394462012535e-04  -5.2817143303920966e-04  -7.3788841280523836e-04  -2.2891611138407091e-03  -2.7403141664050553e-03  -2.8481119890105848e-03  -7.1260796462082839e-04  -9.4868443489767808e-04  -4.8621313272718880e-03  -7.2707647103911191e-03  -6.6089288562552993e-03  -3.4519844318007375e-03  -5.5597745731775651e-04  -8.4792213137844510e-04  -6.1905035356982240e-04  -4.7423596475629761e-03  -9.2799908957287344e-03  -6.7018568476848537e-03  -6.0892875208716753e-03  -9.7826299043903397e-03  -3.5592776447778878e-03  -3.2224346457411421e-03  -1.0094617085771834e-03  -7.8728015344277629e-04  -1.3167543955469648e-03  -2.6944990326996962e-04  -1.0848058355705269e-03  -9.6958571511500196e-04  -2.9460070591624403e-04  -3.1568626516265689e-04  -2.8581034119024246e-04  -2.3133396785132913e-03  -2.3963056485486172e-03  -1.2517317231480959e-03  -5.1371628498334248e-04  -5.7188535704774971e-04  -7.5330013425148909e-04  -2.5165009376763069e-03  -2.6246588875540777e-03  -2.6008775866668086e-03  -6.7713564742728522e-04  -9.3515346083980109e-04  -4.8836163426539455e-03  -7.4378534143152222e-03  -6.9857896618989220e-03  -3.7376867164966281e-03  -5.6238193803781803e-04  -8.9958246814158432e-04  -6.5851482029572969e-04  -4.3306923895027431e-03  -9.6585545203882617e-03  -6.5780497534341864e-03  -6.4774796660924013e-03  -9.4644976421004133e-03  -3.6002780931832941e-03  -3.1982759566433179e-03  -1.0670242215100783e-03  -8.6601143602437955e-04  -3.1003361027655545e-04  -2.9056273798587696e-04  -1.0693333780504234e-03  -1.0286585034170849e-03  -2.7535960099664430e-04  -3.1932275540558192e-04  -2.8366761249816973e-04  -2.3665023022558154e-03  -1.4192378520417770e-03  -1.2895153593995554e-03  -4.8814443073370048e-04  -6.1747994813011651e-04  -2.1778222738963876e-03  -2.7681614750017453e-03  -2.6049817412274433e-03  -2.3680813136605439e-03  -6.3291023392588808e-04  -9.0474216152736336e-04  -4.8139618995005715e-03  -7.4707201520192654e-03  -7.2707647103911156e-03  -4.0356805282501041e-03  -5.8510148031893435e-04  -9.3683875386185007e-04  -7.1615753683123228e-04  -3.9430659002819002e-03  -9.8805167789503458e-03  -6.6538243954938070e-03  -7.0444821279191036e-03  -8.9933723121768724e-03  -3.7457249235833758e-03  -3.2948162081547824e-03  -1.1105519104305801e-03  -1.9410607350136132e-04  -2.9460070591624419e-04  -3.0826550612894675e-04  -1.0345585322240833e-03  -1.0712604843016839e-03  -2.5384800298231273e-04  -3.3222300406590108e-04  -2.9223014525878009e-04  -2.3769595143184490e-03  -1.3930194892051312e-03  -1.3717219774882243e-03  -4.5626250370825802e-04  -6.6102247586597579e-04  -2.1375901630570379e-03  -3.0231614624693904e-03  -2.6836133527237860e-03  -2.1690669388219320e-03  -5.8346612345328366e-04  -8.5970575648360698e-04  -4.6574112986260243e-03  -7.3641661527628841e-03  -7.4378534143152196e-03  -4.3202626136547122e-03  -6.2221437895333784e-04  -9.5640580175691229e-04  -7.8728015344277651e-04  -3.6116892745869660e-03  -9.9241772728139600e-03  -6.9226307608119958e-03  -7.7440795989276853e-03  -8.4059927955479653e-03  -3.9833156904457928e-03  -3.5048607770091274e-03  -6.0191827975105646e-05  -1.9052024505369591e-04  -2.7535960099664446e-04  -3.2103234872623356e-04  -9.8306010639626442e-04  -1.0936350979884161e-03  -2.3181236690281452e-04  -3.5329585909814923e-04  -3.1085982017515379e-04  -2.3430572214782233e-03  -1.4090661226501715e-03  -1.4917948728535304e-03  -4.2061843851764883e-04  -6.9871594605178350e-04  -2.1622137423164159e-03  -3.2600422610966091e-03  -2.8546937329433290e-03  -2.0205713038151172e-03  -5.3281751873675114e-04  -8.0355623501848317e-04  -4.4255739082404710e-03  -7.1246826129628205e-03  -7.4707201520192636e-03  -4.5666168541959526e-03  -6.7057763554349728e-04  -6.8132549775540155e-04  -8.6601143602437966e-04  -3.3644308416275930e-03  -9.7826299043903431e-03  -7.3617321856953785e-03  -8.5185196969936421e-03  -7.7493011920058748e-03  -4.2929294270178976e-03  -1.0160274068734569e-04  -5.7651424858428123e-05  -1.9271490820085702e-04  -2.5384800298231284e-04  -3.2773751043895758e-04  -9.1885400549567399e-04  -1.9410607350136118e-04  -2.1106357990553952e-04  -3.8075671320850695e-04  -3.3807075597244799e-04  -2.2668607281192033e-03  -1.4659906701598876e-03  -1.6399471289541762e-03  -3.8410605815376815e-04  -7.2721903879366596e-04  -2.2495645322631349e-03  -3.4586629537733398e-03  -3.1045777090850206e-03  -1.9352928563852762e-03  -4.8512671883512158e-04  -7.4078094537155233e-04  -4.1365286677239469e-03  -6.7700289827794767e-03  -7.3641661527628823e-03  -4.7529052943658051e-03  -7.2607775911757663e-04  -6.6873899642702259e-04  -9.4578745607498585e-04  -3.2224346457411439e-03  -9.4644976421004116e-03  -7.9339422706563370e-03  -9.3032363530098500e-03  -7.0766121066820091e-03  -1.0729894671230438e-04  -1.0574747554992484e-04  -5.7219210398767292e-05  -2.0050035472559316e-04  -2.3181236690281452e-04  -6.4771717594817836e-04  -8.4707144215471998e-04  -1.9052024505369583e-04  -1.9332572345449978e-04  -4.1226990946594759e-04  -3.7164504029959784e-04  -2.1540205596484287e-03  -1.5589782372242684e-03  -1.8039486476816081e-03  -3.4972594767270545e-04  -7.4393118552113543e-04  -2.3922540711990505e-03  -3.6019037791332194e-03  -3.4128977068343899e-03  -1.9207839078508354e-03  -4.4435650114473408e-04  -6.7647640432707743e-04  -3.8133754471615733e-03  -6.3278615495370579e-03  -7.1246826129628179e-03  -4.8621313272718845e-03  -7.8396561743216374e-04  -6.7644241309077141e-04  -1.0198949394852987e-03  -3.1982759566433184e-03  -8.9933723121768758e-03  -8.5905922290077704e-03  -1.0032194460103030e-02  -5.7651424858428123e-05  -1.0954001927762547e-04  -1.0817764752449438e-04  -5.8946377484431118e-05  -2.1321806198047285e-04  -2.1106357990553960e-04  -6.3575153966663001e-04  -7.7354020372320234e-04  -1.9271490820085694e-04  -1.8009052745675893e-04  -4.4513887123601598e-04  -4.0881108666812984e-04  -2.0133361187939210e-03  -1.6801539397726100e-03  -1.9701264110473797e-03  -3.2033485774710747e-04  -7.4721850375428667e-04  -2.5781983395858949e-03  -3.6771340399109433e-03  -3.7542016411503407e-03  -1.9787629453313013e-03  -4.1393558622233341e-04  -6.1592715490782859e-04  -3.4823499807370797e-03  -5.8335173775840811e-03  -6.7700289827794758e-03  -4.8836163426539455e-03  -8.3924813266909100e-04  -7.0376985902293886e-04  -1.0820328576820774e-03  -3.2948162081547841e-03  -8.4059927955479705e-03  -9.2754926815372205e-03  -1.0710592505791396e-04  -5.7219210398767292e-05  -6.4876257236363876e-05  -1.0865566801892710e-04  -6.2704