<?xml version="1.0"?>
<VTKFile type="UnstructuredGrid"  version="0.1"  >
<UnstructuredGrid>
<Piece  NumberOfPoints="1089" NumberOfCells="2048">
<Points>
<DataArray  type="Float64"  NumberOfComponents="3"  format="ascii">0 0 0  0.03125 0 0  0.0625 0 0  0.09375 0 0  0.125 0 0  0.15625 0 0  0.1875 0 0  0.21875 0 0  0.25 0 0  0.28125 0 0  0.3125 0 0  0.34375 0 0  0.375 0 0  0.40625 0 0  0.4375 0 0  0.46875 0 0  0.5 0 0  0.53125 0 0  0.5625 0 0  0.59375 0 0  0.625 0 0  0.65625 0 0  0.6875 0 0  0.71875 0 0  0.75 0 0  0.78125 0 0  0.8125 0 0  0.84375 0 0  0.875 0 0  0.90625 0 0  0.9375 0 0  0.96875 0 0  1 0 0  0 0.03125 0  0.03125 0.03125 0  0.0625 0.03125 0  0.09375 0.03125 0  0.125 0.03125 0  0.15625 0.03125 0  0.1875 0.03125 0  0.21875 0.03125 0  0.25 0.03125 0  0.28125 0.03125 0  0.3125 0.03125 0  0.34375 0.03125 0  0.375 0.03125 0  0.40625 0.03125 0  0.4375 0.03125 0  0.46875 0.03125 0  0.5 0.03125 0  0.53125 0.03125 0  0.5625 0.03125 0  0.59375 0.03125 0  0.625 0.03125 0  0.65625 0.03125 0  0.6875 0.03125 0  0.71875 0.03125 0  0.75 0.03125 0  0.78125 0.03125 0  0.8125 0.03125 0  0.84375 0.03125 0  0.875 0.03125 0  0.90625 0.03125 0  0.9375 0.03125 0  0.96875 0.03125 0  1 0.03125 0  0 0.0625 0  0.03125 0.0625 0  0.0625 0.0625 0  0.09375 0.0625 0  0.125 0.0625 0  0.15625 0.0625 0  0.1875 0.0625 0  0.21875 0.0625 0  0.25 0.0625 0  0.28125 0.0625 0  0.3125 0.0625 0  0.34375 0.0625 0  0.375 0.0625 0  0.40625 0.0625 0  0.4375 0.0625 0  0.46875 0.0625 0  0.5 0.0625 0  0.53125 0.0625 0  0.5625 0.0625 0  0.59375 0.0625 0  0.625 0.0625 0  0.65625 0.0625 0  0.6875 0.0625 0  0.71875 0.0625 0  0.75 0.0625 0  0.78125 0.0625 0  0.8125 0.0625 0  0.84375 0.0625 0  0.875 0.0625 0  0.90625 0.0625 0  0.9375 0.0625 0  0.96875 0.0625 0  1 0.0625 0  0 0.09375 0  0.03125 0.09375 0  0.0625 0.09375 0  0.09375 0.09375 0  0.125 0.09375 0  0.15625 0.09375 0  0.1875 0.09375 0  0.21875 0.09375 0  0.25 0.09375 0  0.28125 0.09375 0  0.3125 0.09375 0  0.34375 0.09375 0  0.375 0.09375 0  0.40625 0.09375 0  0.4375 0.09375 0  0.46875 0.09375 0  0.5 0.09375 0  0.53125 0.09375 0  0.5625 0.09375 0  0.59375 0.09375 0  0.625 0.09375 0  0.65625 0.09375 0  0.6875 0.09375 0  0.71875 0.09375 0  0.75 0.09375 0  0.78125 0.09375 0  0.8125 0.09375 0  0.84375 0.09375 0  0.875 0.09375 0  0.90625 0.09375 0  0.9375 0.09375 0  0.96875 0.09375 0  1 0.09375 0  0 0.125 0  0.03125 0.125 0  0.0625 0.125 0  0.09375 0.125 0  0.125 0.125 0  0.15625 0.125 0  0.1875 0.125 0  0.21875 0.125 0  0.25 0.125 0  0.28125 0.125 0  0.3125 0.125 0  0.34375 0.125 0  0.375 0.125 0  0.40625 0.125 0  0.4375 0.125 0  0.46875 0.125 0  0.5 0.125 0  0.53125 0.125 0  0.5625 0.125 0  0.59375 0.125 0  0.625 0.125 0  0.65625 0.125 0  0.6875 0.125 0  0.71875 0.125 0  0.75 0.125 0  0.78125 0.125 0  0.8125 0.125 0  0.84375 0.125 0  0.875 0.125 0  0.90625 0.125 0  0.9375 0.125 0  0.96875 0.125 0  1 0.125 0  0 0.15625 0  0.03125 0.15625 0  0.0625 0.15625 0  0.09375 0.15625 0  0.125 0.15625 0  0.15625 0.15625 0  0.1875 0.15625 0  0.21875 0.15625 0  0.25 0.15625 0  0.28125 0.15625 0  0.3125 0.15625 0  0.34375 0.15625 0  0.375 0.15625 0  0.40625 0.15625 0  0.4375 0.15625 0  0.46875 0.15625 0  0.5 0.15625 0  0.53125 0.15625 0  0.5625 0.15625 0  0.59375 0.15625 0  0.625 0.15625 0  0.65625 0.15625 0  0.6875 0.15625 0  0.71875 0.15625 0  0.75 0.15625 0  0.78125 0.15625 0  0.8125 0.15625 0  0.84375 0.15625 0  0.875 0.15625 0  0.90625 0.15625 0  0.9375 0.15625 0  0.96875 0.15625 0  1 0.15625 0  0 0.1875 0  0.03125 0.1875 0  0.0625 0.1875 0  0.09375 0.1875 0  0.125 0.1875 0  0.15625 0.1875 0  0.1875 0.1875 0  0.21875 0.1875 0  0.25 0.1875 0  0.28125 0.1875 0  0.3125 0.1875 0  0.34375 0.1875 0  0.375 0.1875 0  0.40625 0.1875 0  0.4375 0.1875 0  0.46875 0.1875 0  0.5 0.1875 0  0.53125 0.1875 0  0.5625 0.1875 0  0.59375 0.1875 0  0.625 0.1875 0  0.65625 0.1875 0  0.6875 0.1875 0  0.71875 0.1875 0  0.75 0.1875 0  0.78125 0.1875 0  0.8125 0.1875 0  0.84375 0.1875 0  0.875 0.1875 0  0.90625 0.1875 0  0.9375 0.1875 0  0.96875 0.1875 0  1 0.1875 0  0 0.21875 0  0.03125 0.21875 0  0.0625 0.21875 0  0.09375 0.21875 0  0.125 0.21875 0  0.15625 0.21875 0  0.1875 0.21875 0  0.21875 0.21875 0  0.25 0.21875 0  0.28125 0.21875 0  0.3125 0.21875 0  0.34375 0.21875 0  0.375 0.21875 0  0.40625 0.21875 0  0.4375 0.21875 0  0.46875 0.21875 0  0.5 0.21875 0  0.53125 0.21875 0  0.5625 0.21875 0  0.59375 0.21875 0  0.625 0.21875 0  0.65625 0.21875 0  0.6875 0.21875 0  0.71875 0.21875 0  0.75 0.21875 0  0.78125 0.21875 0  0.8125 0.21875 0  0.84375 0.21875 0  0.875 0.21875 0  0.90625 0.21875 0  0.9375 0.21875 0  0.96875 0.21875 0  1 0.21875 0  0 0.25 0  0.03125 0.25 0  0.0625 0.25 0  0.09375 0.25 0  0.125 0.25 0  0.15625 0.25 0  0.1875 0.25 0  0.21875 0.25 0  0.25 0.25 0  0.28125 0.25 0  0.3125 0.25 0  0.34375 0.25 0  0.375 0.25 0  0.40625 0.25 0  0.4375 0.25 0  0.46875 0.25 0  0.5 0.25 0  0.53125 0.25 0  0.5625 0.25 0  0.59375 0.25 0  0.625 0.25 0  0.65625 0.25 0  0.6875 0.25 0  0.71875 0.25 0  0.75 0.25 0  0.78125 0.25 0  0.8125 0.25 0  0.84375 0.25 0  0.875 0.25 0  0.90625 0.25 0  0.9375 0.25 0  0.96875 0.25 0  1 0.25 0  0 0.28125 0  0.03125 0.28125 0  0.0625 0.28125 0  0.09375 0.28125 0  0.125 0.28125 0  0.15625 0.28125 0  0.1875 0.28125 0  0.21875 0.28125 0  0.25 0.28125 0  0.28125 0.28125 0  0.3125 0.28125 0  0.34375 0.28125 0  0.375 0.28125 0  0.40625 0.28125 0  0.4375 0.28125 0  0.46875 0.28125 0  0.5 0.28125 0  0.53125 0.28125 0  0.5625 0.28125 0  0.59375 0.28125 0  0.625 0.28125 0  0.65625 0.28125 0  0.6875 0.28125 0  0.71875 0.28125 0  0.75 0.28125 0  0.78125 0.28125 0  0.8125 0.28125 0  0.84375 0.28125 0  0.875 0.28125 0  0.90625 0.28125 0  0.9375 0.28125 0  0.96875 0.28125 0  1 0.28125 0  0 0.3125 0  0.03125 0.3125 0  0.0625 0.3125 0  0.09375 0.3125 0  0.125 0.3125 0  0.15625 0.3125 0  0.1875 0.3125 0  0.21875 0.3125 0  0.25 0.3125 0  0.28125 0.3125 0  0.3125 0.3125 0  0.34375 0.3125 0  0.375 0.3125 0  0.40625 0.3125 0  0.4375 0.3125 0  0.46875 0.3125 0  0.5 0.3125 0  0.53125 0.3125 0  0.5625 0.3125 0  0.59375 0.3125 0  0.625 0.3125 0  0.65625 0.3125 0  0.6875 0.3125 0  0.71875 0.3125 0  0.75 0.3125 0  0.78125 0.3125 0  0.8125 0.3125 0  0.84375 0.3125 0  0.875 0.3125 0  0.90625 0.3125 0  0.9375 0.3125 0  0.96875 0.3125 0  1 0.3125 0  0 0.34375 0  0.03125 0.34375 0  0.0625 0.34375 0  0.09375 0.34375 0  0.125 0.34375 0  0.15625 0.34375 0  0.1875 0.34375 0  0.21875 0.34375 0  0.25 0.34375 0  0.28125 0.34375 0  0.3125 0.34375 0  0.34375 0.34375 0  0.375 0.34375 0  0.40625 0.34375 0  0.4375 0.34375 0  0.46875 0.34375 0  0.5 0.34375 0  0.53125 0.34375 0  0.5625 0.34375 0  0.59375 0.34375 0  0.625 0.34375 0  0.65625 0.34375 0  0.6875 0.34375 0  0.71875 0.34375 0  0.75 0.34375 0  0.78125 0.34375 0  0.8125 0.34375 0  0.84375 0.34375 0  0.875 0.34375 0  0.90625 0.34375 0  0.9375 0.34375 0  0.96875 0.34375 0  1 0.34375 0  0 0.375 0  0.03125 0.375 0  0.0625 0.375 0  0.09375 0.375 0  0.125 0.375 0  0.15625 0.375 0  0.1875 0.375 0  0.21875 0.375 0  0.25 0.375 0  0.28125 0.375 0  0.3125 0.375 0  0.34375 0.375 0  0.375 0.375 0  0.40625 0.375 0  0.4375 0.375 0  0.46875 0.375 0  0.5 0.375 0  0.53125 0.375 0  0.5625 0.375 0  0.59375 0.375 0  0.625 0.375 0  0.65625 0.375 0  0.6875 0.375 0  0.71875 0.375 0  0.75 0.375 0  0.78125 0.375 0  0.8125 0.375 0  0.84375 0.375 0  0.875 0.375 0  0.90625 0.375 0  0.9375 0.375 0  0.96875 0.375 0  1 0.375 0  0 0.40625 0  0.03125 0.40625 0  0.0625 0.40625 0  0.09375 0.40625 0  0.125 0.40625 0  0.15625 0.40625 0  0.1875 0.40625 0  0.21875 0.40625 0  0.25 0.40625 0  0.28125 0.40625 0  0.3125 0.40625 0  0.34375 0.40625 0  0.375 0.40625 0  0.40625 0.40625 0  0.4375 0.40625 0  0.46875 0.40625 0  0.5 0.40625 0  0.53125 0.40625 0  0.5625 0.40625 0  0.59375 0.40625 0  0.625 0.40625 0  0.65625 0.40625 0  0.6875 0.40625 0  0.71875 0.40625 0  0.75 0.40625 0  0.78125 0.40625 0  0.8125 0.40625 0  0.84375 0.40625 0  0.875 0.40625 0  0.90625 0.40625 0  0.9375 0.40625 0  0.96875 0.40625 0  1 0.40625 0  0 0.4375 0  0.03125 0.4375 0  0.0625 0.4375 0  0.09375 0.4375 0  0.125 0.4375 0  0.15625 0.4375 0  0.1875 0.4375 0  0.21875 0.4375 0  0.25 0.4375 0  0.28125 0.4375 0  0.3125 0.4375 0  0.34375 0.4375 0  0.375 0.4375 0  0.40625 0.4375 0  0.4375 0.4375 0  0.46875 0.4375 0  0.5 0.4375 0  0.53125 0.4375 0  0.5625 0.4375 0  0.59375 0.4375 0  0.625 0.4375 0  0.65625 0.4375 0  0.6875 0.4375 0  0.71875 0.4375 0  0.75 0.4375 0  0.78125 0.4375 0  0.8125 0.4375 0  0.84375 0.4375 0  0.875 0.4375 0  0.90625 0.4375 0  0.9375 0.4375 0  0.96875 0.4375 0  1 0.4375 0  0 0.46875 0  0.03125 0.46875 0  0.0625 0.46875 0  0.09375 0.46875 0  0.125 0.46875 0  0.15625 0.46875 0  0.1875 0.46875 0  0.21875 0.46875 0  0.25 0.46875 0  0.28125 0.46875 0  0.3125 0.46875 0  0.34375 0.46875 0  0.375 0.46875 0  0.40625 0.46875 0  0.4375 0.46875 0  0.46875 0.46875 0  0.5 0.46875 0  0.53125 0.46875 0  0.5625 0.46875 0  0.59375 0.46875 0  0.625 0.46875 0  0.65625 0.46875 0  0.6875 0.46875 0  0.71875 0.46875 0  0.75 0.46875 0  0.78125 0.46875 0  0.8125 0.46875 0  0.84375 0.46875 0  0.875 0.46875 0  0.90625 0.46875 0  0.9375 0.46875 0  0.96875 0.46875 0  1 0.46875 0  0 0.5 0  0.03125 0.5 0  0.0625 0.5 0  0.09375 0.5 0  0.125 0.5 0  0.15625 0.5 0  0.1875 0.5 0  0.21875 0.5 0  0.25 0.5 0  0.28125 0.5 0  0.3125 0.5 0  0.34375 0.5 0  0.375 0.5 0  0.40625 0.5 0  0.4375 0.5 0  0.46875 0.5 0  0.5 0.5 0  0.53125 0.5 0  0.5625 0.5 0  0.59375 0.5 0  0.625 0.5 0  0.65625 0.5 0  0.6875 0.5 0  0.71875 0.5 0  0.75 0.5 0  0.78125 0.5 0  0.8125 0.5 0  0.84375 0.5 0  0.875 0.5 0  0.90625 0.5 0  0.9375 0.5 0  0.96875 0.5 0  1 0.5 0  0 0.53125 0  0.03125 0.53125 0  0.0625 0.53125 0  0.09375 0.53125 0  0.125 0.53125 0  0.15625 0.53125 0  0.1875 0.53125 0  0.21875 0.53125 0  0.25 0.53125 0  0.28125 0.53125 0  0.3125 0.53125 0  0.34375 0.53125 0  0.375 0.53125 0  0.40625 0.53125 0  0.4375 0.53125 0  0.46875 0.53125 0  0.5 0.53125 0  0.53125 0.53125 0  0.5625 0.53125 0  0.59375 0.53125 0  0.625 0.53125 0  0.65625 0.53125 0  0.6875 0.53125 0  0.71875 0.53125 0  0.75 0.53125 0  0.78125 0.531
[...]
<PointData  Scalars="theta_dt"> 
<DataArray  type="Float64"  Name="theta_dt"  format="ascii">2.8733390043833989e+01  3.9853131008808120e+01  2.4593768992084147e+01  2.6291222640698376e+01  4.7978815849146216e+01  1.0818675187737250e+00  5.4501596791950419e+01  3.1639412920115252e+01  6.2928074639521272e+00  5.2077683272016777e+01  3.5342140709224459e+01  9.6101476556032450e-01  3.4640065144931000e+01  6.0145950235793997e+01  3.6074686438814268e+01  7.6859164090839038e-01  1.7471850904842281e+01  4.7856787628233725e+01  5.1491972843832919e+01  4.1152652050837688e+01  9.8264662647795831e+00  5.3431341634369400e-01  1.4632690069062368e+01  3.4812983796102699e+01  5.0062045974710855e+01  5.1983823752923662e+01  4.8502873773435425e+01  5.0062045974701824e+01  3.4812983796091721e+01  2.8899327415056330e+01  2.1539029823597033e+01  1.4050775967164352e+01  1.4938312083765004e+01  3.7620021546229339e+01  1.6863592970763872e+01  4.2281215018873468e+01  2.6092164117519147e+01  3.1546180412808759e+01  4.9965862657082084e+01  1.1044636736282234e+00  5.5639930737241848e+01  3.2949761942599494e+01  1.2264723228611405e+01  5.5250557945429115e+01  3.7495389012816496e+01  7.2445371647298828e-01  3.6074686438823363e+01  6.1402173555022046e+01  3.6828151338123639e+01  8.0042293018979083e-01  2.2393554804530307e+01  5.0772500845032823e+01  5.4629162639063736e+01  2.9547712758670446e+01  1.0233430214996943e+01  5.4547321963478745e-01  1.4938312083773733e+01  3.6254766530888560e+01  4.8502873773441273e+01  5.5150979959763035e+01  5.1457950307459022e+01  3.9030053770038649e+01  3.6254766530877127e+01  2.9502925975998096e+01  2.1988899373115739e+01  1.4632690069053815e+01  1.7435171167154891e+01  3.9882422138665156e+01  1.7891020914518471e+01  4.4032295195655230e+01  2.7172773351078998e+01  3.3468156787062739e+01  5.1009462127854398e+01  6.3243083385683345e+00  5.2586748629623600e+01  3.3637958889410271e+01  1.3011961340284154e+01  5.7538764581193647e+01  3.9048263791645716e+01  7.6859164090888032e-01  3.6828151338132919e+01  5.3426038392786957e+01  2.5149164367500504e+01  8.1714076316453477e-01  2.3757900113745407e+01  5.2875248358690747e+01  5.6891634134472532e+01  3.1347930886261853e+01  1.0447168191059736e+01  3.3282362858762586e+00  1.9494731617977312e+01  3.7011992627919561e+01  5.1457950307465218e+01  5.7435062564639004e+01  5.3589085769885791e+01  4.1407991138374314e+01  3.7011992627907887e+01  1.9494731617967936e+01  1.3243881831325224e+01  3.6805061466119142e+01  1.8497422971520390e+01  4.2312290734338760e+01  1.8631979093033838e+01  4.4951964696379100e+01  2.7740310673174704e+01  3.4854243394959163e+01  3.9038630209718953e+01  6.7096219027198414e+00  5.5790638518744096e+01  2.1683198997017794e+01  1.3550852844557422e+01  5.8740533570512106e+01  3.9863835569265440e+01  8.0042293019030097e-01  3.9690509870951345e+01  5.6681062684705012e+01  2.6681397402183190e+01  6.0047901586792907e-01  2.4741835601705500e+01  5.3979613984934240e+01  5.8079886995862744e+01  3.2646208155104645e+01  4.0570699192036015e+00  3.5310117542746977e+00  2.0682463796702852e+01  3.9030053770048156e+01  5.3589085769892243e+01  5.8634665607772625e+01  5.4708360782356692e+01  4.3122906672622697e+01  2.6156453494441589e+01  2.0682463796692911e+01  1.8773816822838743e+01  3.7573781160431089e+01  1.9263495343672389e+01  4.4064657914564172e+01  1.9021131255869058e+01  4.5365932223290571e+01  1.6016114670635414e+01  3.5582217816431360e+01  4.1417090104529308e+01  6.9875014741160015e+00  5.8101212638162416e+01  2.3004265308221498e+01  1.3833879337147943e+01  5.4188888872901082e+01  2.7658858512942825e+01  8.1714076316505568e-01  4.2108686057602732e+01  5.9028513797966703e+01  2.7786409783188425e+01  6.3706368211376196e-01  2.5258599751602862e+01  5.1491972843836983e+01  4.7856787628227281e+01  3.3328065001792375e+01  4.3042501619894997e+00  3.6772489114645706e+00  2.1539029823607386e+01  4.1407991138384403e+01  5.4708360782363286e+01  5.1097771961498161e+01  4.4383583460134631e+01  4.4023582457819707e+01  2.7750056428068934e+01  3.4573879296369640e+01  1.9551336070247562e+01  3.9082481189779529e+01  1.9665837512441730e+01  4.4985003351107622e+01  8.1864198559374977e+00  4.8129888074306031e+01  1.6991909318402186e+01  3.9038630209723834e+01  4.3132382473247937e+01  7.1334441728432223e+00  5.9314729057893878e+01  2.3956988945531208e+01  1.9787147568376874e+01  5.7490390442913721e+01  2.9343996678802203e+01  4.8149588519627686e+00  4.3852620932531948e+01  6.0261398061024721e+01  2.8366763668868572e+01  6.6344772960622522e-01  2.9547712758679701e+01  5.4629162639068035e+01  5.0772500845025981e+01  2.2393554804521617e+01  4.4825110547099456e+00  3.7540528494700034e+00  2.1988899373126312e+01  4.3122906672633206e+01  5.1097771961501230e+01  5.4210944751416683e+01  4.7087688923896948e+01  3.2813778019715087e+01  1.9466048397040428e+01  3.6005759497619621e+01  1.9959690152230174e+01  4.1463612740763814e+01  8.5986262474726001e+00  4.4547057257469540e+01  8.6851840596205179e+00  5.0123191551512662e+01  1.7695630712402945e+01  4.1417090104534473e+01  4.4033256172380412e+01  1.3667479072698027e+01  5.3700865790437874e+01  2.4457360592398214e+01  2.0992695423699974e+01  5.9871359935277951e+01  3.0559280839128814e+01  5.1083140865863532e+00  4.4768537711778890e+01  5.0466139270691535e+01  1.7696790232886034e+01  6.7730466437494796e-01  3.1347930886271673e+01  5.6891634134477009e+01  5.2875248358683628e+01  2.3757900113736184e+01  4.5761338987010776e+00  7.7635024261743721e+00  2.6156453494451924e+01  4.4023582457830429e+01  5.4210944751419923e+01  5.6456095716838171e+01  4.9037829633152725e+01  3.1168027765887398e+01  1.9872621139406565e+01  3.6757784771642285e+01  8.8696077292037394e+00  4.3180831848485710e+01  9.1225044565749673e+00  4.7261122493609243e+01  9.0448817086051498e+00  5.1170077032817652e+01  1.8065226069400719e+01  4.3132382473253323e+01  3.1546180412803587e+01  1.4500181210630082e+01  5.6972634162253115e+01  1.3667479072693748e+01  2.1862109720267600e+01  6.1121848092996544e+01  3.1197549601338949e+01  5.3198753562850492e+00  4.5774166938764225e+01  5.3540829331701168e+01  1.8774981388919777e+01  4.0570699192063824e+00  3.2646208155114877e+01  5.8079886995867305e+01  5.3979613984926964e+01  2.4741835601695893e+01  6.0047901586745656e-01  8.2365000458326953e+00  2.7750056428079905e+01  4.4383583460142631e+01  5.6456095716841546e+01  5.7635251814198426e+01  1.9385486807287432e+01  3.3066964886458877e+01  8.9820683459021229e+00  3.7434390789778455e+01  9.4099957026874748e+00  4.4082717473354450e+01  9.5003137676219929e+00  4.9218445969154416e+01  9.2337953640959078e+00  4.8856017484183532e+01  7.6538908401614139e+00  4.4033256172385911e+01  3.3468156787057239e+01  1.5100707469545389e+01  5.9332160733474609e+01  1.4500181210625543e+01  2.2318727197096127e+01  5.4188888872900058e+01  1.9787147568370621e+01  5.4309875999482102e+00  4.8562994817645574e+01  5.5758227409058868e+01  1.9552548866933563e+01  4.3042501619924503e+00  3.3328065001802820e+01  5.3377683009029646e+01  4.2733123615854865e+01  2.5258599751593056e+01  6.3706368211326070e-01  8.5776154075809714e+00  2.8899327415067749e+01  4.7087688923905425e+01  5.7635251814201872e+01  2.7177730191829308e+01  8.9230493564300524e+00  3.4436436097093917e+01  9.5293080727677211e+00  3.9715111109672762e+01  9.7997114885565040e+00  4.2743266329202129e+01  9.6987396906988153e+00  5.0246434708549572e+01  1.3153899788177892e+00  5.1832609582370274e+01  8.1202102859202476e+00  4.5223535625221409e+01  3.4854243394953436e+01  1.5416104612423927e+01  6.0571387042168304e+01  1.5100707469540662e+01  2.7658858512949863e+01  5.7490390442912641e+01  2.0992695423693348e+01  1.0779011595748123e+01  5.0574235448085730e+01  5.6922807654868933e+01  1.9960928279690275e+01  4.4825110547130187e+00  3.6484768677406521e+01  5.6629761210361366e+01  4.5336673488231796e+01  1.5490045157754814e+01  6.6344772960570320e-01  8.7567696225552059e+00  2.9502925976009752e+01  4.9037829633161579e+01  8.6845111954340872e+00  2.9057678475405449e+01  9.4666933039679080e+00  3.5155684091126460e+01  9.9239651907625905e+00  4.1359915871120371e+01  1.0004390707113524e+01  4.5347434154534646e+01  1.3979602863321590e+00  4.6976160161360468e+01  1.3955311695779775e+00  5.3979261591070646e+01  8.4565094972041983e+00  4.7978815849150415e+01  3.5582217816425519e+01  2.1683198997023311e+01  5.2586748629621489e+01  1.5416104612419103e+01  2.9343996678809667e+01  5.9871359935276828e+01  2.1862109720260698e+01  1.1435731533114161e+01  5.1630541544721410e+01  4.5774166938757496e+01  1.0779011595743080e+01  4.5761338987042146e+00  3.8707632507527293e+01  5.8975087668626195e+01  4.7214295741779445e+01  1.6433788597998493e+01  6.7730466437441506e-01  1.3243881831332962e+01  3.2813778019725440e+01  2.4788974353517457e+01  9.2136220139593998e+00  3.0828040870775553e+01  9.8587572258975698e+00  3.4945557021305824e+01  1.0131239603137312e+01  4.2223769390682712e+01  1.4591527555135428e+00  4.7225502062007891e+01  1.4831321393842893e+00  4.9838220442567945e+01  1.4533272136613431e+00  5.5106685913066961e+01  8.6331342639260544e+00  4.9965862657086454e+01  2.3309048833758286e+01  2.3004265308227346e+01  5.5790638518741865e+01  6.3243083385659595e+00  3.0559280839136584e+01  6.1121848092995400e+01  2.2318727197089078e+01  1.1909343343600112e+01  5.0466139270696367e+01  4.8562994817638440e+01  1.1435731533108815e+01  9.2621616296813745e+00  4.0310712455533256e+01  6.0206856060220368e+01  4.8200425299617166e+01  1.7114395374093551e+01  4.8360101345364814e-01  1.4050775967172562e+01  8.7672194361729847e+00  2.5306723055143298e+01  9.5952049665259835e+00  3.2104786849663256e+01  1.0064669688452865e+01  3.7074643145241886e+01  1.4956627594520302e+00  3.9961788173905681e+01  1.5480528088900813e+00  4.8211865677845168e+01  1.5445561852085279e+00  5.1902274652554695e+01  1.4836817683589194e+00  5.0050578269801441e+01  1.2152567719394134e+00  5.1009462127858860e+01  2.4729171351875422e+01  2.3956988945537297e+01  5.8101212638160085e+01  6.7096219027173190e+00  3.1197549601346882e+01  5.2077683272013417e+01  1.2264723228606748e+01  1.2158084859301036e+01  5.3540829331706298e+01  5.0574235448078305e+01  1.1909343343594539e+01  9.8264662647851946e+00  4.1152652050847870e+01  5.3377683009028168e+01  3.6484768677397504e+01  1.7471850904834010e+01  5.1306479354557311e-01  2.1507316057898450e+01  9.1303145873725278e+00  2.6285997301090461e+01  9.7956128108524574e+00  3.2775335435915231e+01  1.5048320977692171e+00  3.8610092697576462e+01  1.5867872141372357e+00  4.2396492209009821e+01  1.6121655498566956e+00  4.3997468627187658e+01  1.5768161709616859e+00  5.2986318507276536e+01  1.2152567719397642e+00  5.3099949943122908e+01  1.2892972666603317e+00  4.9630663006689417e+01  2.5753332122164995e+01  2.4457360592404427e+01  5.9314729057891498e+01  6.9875014741133761e+00  3.5342140709231501e+01  5.5250557945425562e+01  1.3011961340279212e+01  1.7696790232892845e+01  5.5758227409064212e+01  5.1630541544713822e+01  1.2158084859295350e+01  1.0233430215002786e+01  4.2733123615862979e+01  5.6629761210359796e+01  3.8707632507517715e+01  9.2621616296760862e+00  8.4672286930347855e+00  2.2398043412539394e+01  9.3210126152793116e+00  2.7887492795165763e+01  1.4847632612587043e+00  3.1649988447560187e+01  1.5965152017546720e+00  3.9416512724429531e+01  1.6525041438471830e+00  4.4152346600591066e+01  1.6458376416641476e+00  4.6678049734689985e+01  1.3153899788180932e+00  4.6976160161359871e+01  1.2892972666607039e+00  5.5299088962472304e+01  1.3426936244665120e+00  5.2654451005400240e+01  2.6291222640692965e+01  2.9822455849117212e+01  4.9328777150662575e+01  7.1334441728405418e+00  3.7495389012823971e+01  5.7538764581189945e+01  1.3550852844552276e+01  1.8774981388927007e+01  5.6922807654874383e+01  3.9690509870943607e+01  4.8149588519600766e+00  1.0447168191065701e+01  4.5336673488240386e+01  5.8975087668624568e+01  4.0310712455523280e+01  1.7641530797619062e+01  8.6440773435545175e+00  2.2865854534146205e+01  1.4344074423590596e+00  2.9042455721182925e+01  1.5752236552638319e+00  3.3578289409692601e+01  1.6626350169131403e+00  3.6241068025618212e+01  1.6870187575906435e+00  4.5074523524903640e+01  1.3979602863324283e+00  4.8611225201496310e+01  1.3955311695783001e+00  4.9838220442567319e+01  1.3426936244668997e+00  5.6454079528161010e+01  1.3707374584240952e+00  5.4835139647714001e+01  1.4934914392578424e+01  3.1639412920121682e+01  5.2334172511170841e+01  9.7918602172024116e-01  3.9048263791653497e+01  5.8740533570508326e+01  1.3833879337142690e+01  1.9552548866941091e+01  5.3426038392789465e+01  4.2108686057594532e+01  5.1083140865834986e+00  1.5490045157762147e+01  4.7214295741788398e+01  6.0206856060218705e+01  7.7743139589418400e+00  1.8716355228184057e+01  1.3536229372778594e+00  2.2902749272988768e+01  1.5217998676603743e+00  2.9649043695627896e+01  1.6404616791829396e+00  3.4968937169680281e+01  1.6973612265984670e+00  3.8449084197829258e+01  1.4591527555137720e+00  3.9961788173905198e+01  1.4831321393845751e+00  4.9626531376475050e+01  1.4533272136616793e+00  5.1902274652554034e+01  1.3707374584244911e+00  4.8856017484182090e+01  1.1017332083645150e+00  5.5980440052288714e+01  1.5844836045165763e+01  3.2949761942606180e+01  5.4501596791946163e+01  1.0388437164116056e+00  3.9863835569273384e+01  4.8012422261870832e+01  5.5790237861211036e+00  1.9960928279697960e+01  5.6681062684707683e+01  4.3852620932523422e+01  5.3198753562820755e+00  1.6433788598006270e+01  4.8200425299626311e+01  1.3477565121753910e+01  1.2432018204936783e+00  1.9491494698680569e+01  1.4360935017345311e+00  2.4298117664094324e+01  1.5848253407954220e+00  2.7607625673678140e+01  1.6747247710055910e+00  3.5699307113940137e+01  1.4956627594522216e+00  4.0041456345228021e+01  1.5480528088903245e+00  4.2396492209009303e+01  1.5445561852088250e+00  4.2743266329201042e+01  1.4836817683592625e+00  5.2986318507275861e+01  7.6538908401633181e+00  5.1832609582368740e+01  1.1688571888115378e+00  5.1922383008197968e+01  1.6501051300348518e+01  3.3637958889417099e+01  5.5639930737237499e+01  1.0818675187732607e+00  4.2294109196170091e+01  5.0937617643703895e+01  5.9189302904271495e+00  2.5149164367508405e+01  5.9028513797969488e+01  4.4768537711770172e+01  5.4309875999451753e+00  1.7114395374101651e+01  1.1048642030943343e+00  1.4597797296939788e+01  1.3189448897385434e+00  1.9898598918850002e+01  1.4955694383122742e+00  2.5304426308623910e+01  1.6179263981767706e+00  2.9289642437663691e+01  1.5048320977693697e+00  3.1649988447559895e+01  1.5867872141374386e+00  4.0877772190260465e+01  1.6121655498569485e+00  4.4152346600590526e+01  1.5768161709619894e+00  4.5347434154533502e+01  8.1864198559391532e+00  4.4547057257467657e+01  8.1202102859222673e+00  5.3979261591069040e+01  1.2172655103771104e+00  5.5085795888326011e+01  1.6845696373774260e+01  3.7505936583581459e+01  4.4172933224732944e+01  1.1044636736277493e+00  4.4870911762484930e+01  5.3047203483859249e+01  6.1640633003156688e+00  2.6681397402191582e+01  6.0261398061027556e+01  3.2650789570687628e+01  7.2445371647252677e-01  1.0900901418996343e+01  1.1721789419095616e+00  1.5487179819759412e+01  1.3735691064186417e+00  1.8977531548406674e+01  1.5268062746506681e+00  2.5832940868356705e+01  1.4847632612588242e+00  3.0502675512392614e+01  1.5965152017548347e+00  3.3578289409692289e+01  1.6525041438473944e+00  3.4945557021305028e+01  1.6458376416644060e+00  4.5074523524903093e+01  8.5986262474740229e+00  4.7225502062006697e+01  8.6851840596222747e+00  4.7261122493607246e+01  8.4565094972063033e+00  5.5106685913065327e+01  1.2426896214574561e+00  5.7367178889245842e+01  7.0246962226631551e+00  3.9791015888416808e+01  4.6864204653744459e+01  8.5200830735613209e-01  4.6729244453878458e+01  5.4155160607738907e+01  6.2928074639492522e+00  2.7786409783197161e+01  5.4437417439753851e+01  3.4640065144922268e+01  9.9856575169772310e-01  1.1128580365117637e+01  1.2207248341669772e+00  1.6128582711434351e+01  1.4022578133937531e+00  2.0133752897565230e+01  1.4344074423591491e+00  2.2902749272988554e+01  1.5752236552639587e+00  3.1139762001629094e+01  1.6626350169133091e+00  3.4968937169679961e+01  1.6870187575908593e+00  3.7074643145241048e+01  8.8696077292049562e+00  3.7434390789777112e+01  9.1225044565764737e+00  4.8211865677843953e+01  9.0448817086069777e+00  4.9218445969152320e+01  8.6331342639282020e+00  4.5365932223287757e+01  7.0246962226653320e+00  5.8565364097002522e+01  7.4526814810872706e+00  4.1438964252840869e+01  4.8805089742623409e+01  9.0391759767204316e-01  4.7705243109527515e+01  4.2294109196163475e+01  8.5200830735568855e-01  2.8366763668877493e+01  5.7754060812278460e+01  8.0119237587564989e+00  1.0399214386672329e+00  1.1208250368897394e+01  1.2462211975468800e+00  1.6465448313004718e+01  1.3536229372779232e+00  2.0967594015125631e+01  1.5217998676604692e+00  2.4298117664094107e+01  1.6404616791830715e+00  2.6285997301090021e+01  1.6973612265986393e+00  3.5699307113939810e+01  8.9820683459031159e+00  3.8610092697575581e+01  9.4099957026887644e+00  3.9715111109671341e+01  9.5003137676235632e+00  3.9082481189777525e+01  9.2337953640977748e+00  5.0246434708547440e+01  1.6016114670638657e+01  4.8129888074303040e+01  7.4526814810895790e+00  5.1922383008197038e+01  7.7613349291865070e+00  4.2304468796621386e+01  4.9824445020765047e+01  9.4135342315674531e-01  4.8012422261876047e+01  4.4870911762477917e+01  9.0391759767157287e-01  3.2650789570695864e+01  8.3495604639906840e-01  8.3437382741525887e+00  1.0616414972297379e+00  1.1891122023210180e+01  1.2432018204937212e+00  1.4597797296939692e+01  1.4360935017345984e+00  2.1405528413811577e+01  1.5848253407955211e+00  2.5304426308623679e+01  1.6747247710057256e+00  2.7887492795165286e+01  8.9230493564308055e+00  2.9057678475404604e+01  9.5293080727687745e+00  3.9416512724428635e+01  9.7997114885578451e+00  4.1359915871118886e+01  9.6987396907004193e+00  4.1463612740761683e+01  1.6863592970766689e+01  3.9882422138662328e+01  1.6991909318405629e+01  5.0123191551509557e+01  7.7613349291889104e+00  5.5085795888325023e+01  7.9234401064787408e+00  4.4172933224738166e+01  3.7505936583575604e+01  9.6101476556082455e-01  5.0937617643709430e+01  4.6729244453871146e+01  9.4135342315625548e-01  5.0592096611843989e+00  8.5239514665278360e-01  8.5180076729805130e+00  1.1048642030943592e+00  1.2383593870228809e+01  1.3189448897385887e+00  1.5487179819759307e+01  1.4955694383123443e+00  1.7641530797618817e+01  1.6179263981768717e+00  2.5832940868356470e+01  8.6845111954346823e+00  2.9042455721182435e+01  9.4666933039687073e+00  3.0828040870774657e+01  9.9239651907636866e+00  3.1168027765886112e+01  1.0004390707114894e+01  4.2223769390681191e+01  1.7435171167157225e+01  4.3180831848483486e+01  1.7891020914521452e+01  4.2312290734335754e+01  1.7695630712406526e+01  5.1170077032814476e+01  7.9234401064811948e+00  5.7367178889244812e+01  1.1017332083641251e+00  4.6864204653749987e+01  3.9791015888410598e+01  5.5790237861236518e+00  5.3047203483865005e+01  4.7705243109520048e+01  6.2319302493652162e-01  5.3674460725011146e+00  9.4122110032918449e-01  7.5518228851222649e+00  1.1721789419095876e+00  1.2642240700724356e+01  1.3735691064186888e+00  1.6128582711434237e+01  1.5268062746507398e+00  1.8716355228183794e+01  8.2637441856111220e+00  2.0272215075196939e+01  9.2136220139600322e+00  2.9649043695627395e+01  9.8587572258984029e+00  3.2104786849662325e+01  1.0131239603138431e+01  3.3066964886457512e+01  1.7695692544361812e+01  3.2588404577914829e+01  1.8497422971522873e+01  4.4082717473352183e+01  1.8631979093036946e+01  4.4064657914561046e+01  1.8065226069404378e+01  3.9853131008804304e+01  1.4934914392582213e+01  5.8565364097001471e+01  1.1688571888111241e+00  4.8805089742629157e+01  4.1438964252834410e+01  5.9189302904298549e+00  5.4155160607744790e+01  2.7620367750865906e+00  7.5570924831150321e-01  5.5897393158080169e+00  9.9856575169773842e-01  8.011923758