<?xml version="1.0"?>
<VTKFile type="UnstructuredGrid"  version="0.1"  >
<UnstructuredGrid>
<Piece  NumberOfPoints="1089" NumberOfCells="2048">
<Points>
<DataArray  type="Float64"  NumberOfComponents="3"  format="ascii">0 0 0  0.03125 0 0  0.0625 0 0  0.09375 0 0  0.125 0 0  0.15625 0 0  0.1875 0 0  0.21875 0 0  0.25 0 0  0.28125 0 0  0.3125 0 0  0.34375 0 0  0.375 0 0  0.40625 0 0  0.4375 0 0  0.46875 0 0  0.5 0 0  0.53125 0 0  0.5625 0 0  0.59375 0 0  0.625 0 0  0.65625 0 0  0.6875 0 0  0.71875 0 0  0.75 0 0  0.78125 0 0  0.8125 0 0  0.84375 0 0  0.875 0 0  0.90625 0 0  0.9375 0 0  0.96875 0 0  1 0 0  0 0.03125 0  0.03125 0.03125 0  0.0625 0.03125 0  0.09375 0.03125 0  0.125 0.03125 0  0.15625 0.03125 0  0.1875 0.03125 0  0.21875 0.03125 0  0.25 0.03125 0  0.28125 0.03125 0  0.3125 0.03125 0  0.34375 0.03125 0  0.375 0.03125 0  0.40625 0.03125 0  0.4375 0.03125 0  0.46875 0.03125 0  0.5 0.03125 0  0.53125 0.03125 0  0.5625 0.03125 0  0.59375 0.03125 0  0.625 0.03125 0  0.65625 0.03125 0  0.6875 0.03125 0  0.71875 0.03125 0  0.75 0.03125 0  0.78125 0.03125 0  0.8125 0.03125 0  0.84375 0.03125 0  0.875 0.03125 0  0.90625 0.03125 0  0.9375 0.03125 0  0.96875 0.03125 0  1 0.03125 0  0 0.0625 0  0.03125 0.0625 0  0.0625 0.0625 0  0.09375 0.0625 0  0.125 0.0625 0  0.15625 0.0625 0  0.1875 0.0625 0  0.21875 0.0625 0  0.25 0.0625 0  0.28125 0.0625 0  0.3125 0.0625 0  0.34375 0.0625 0  0.375 0.0625 0  0.40625 0.0625 0  0.4375 0.0625 0  0.46875 0.0625 0  0.5 0.0625 0  0.53125 0.0625 0  0.5625 0.0625 0  0.59375 0.0625 0  0.625 0.0625 0  0.65625 0.0625 0  0.6875 0.0625 0  0.71875 0.0625 0  0.75 0.0625 0  0.78125 0.0625 0  0.8125 0.0625 0  0.84375 0.0625 0  0.875 0.0625 0  0.90625 0.0625 0  0.9375 0.0625 0  0.96875 0.0625 0  1 0.0625 0  0 0.09375 0  0.03125 0.09375 0  0.0625 0.09375 0  0.09375 0.09375 0  0.125 0.09375 0  0.15625 0.09375 0  0.1875 0.09375 0  0.21875 0.09375 0  0.25 0.09375 0  0.28125 0.09375 0  0.3125 0.09375 0  0.34375 0.09375 0  0.375 0.09375 0  0.40625 0.09375 0  0.4375 0.09375 0  0.46875 0.09375 0  0.5 0.09375 0  0.53125 0.09375 0  0.5625 0.09375 0  0.59375 0.09375 0  0.625 0.09375 0  0.65625 0.09375 0  0.6875 0.09375 0  0.71875 0.09375 0  0.75 0.09375 0  0.78125 0.09375 0  0.8125 0.09375 0  0.84375 0.09375 0  0.875 0.09375 0  0.90625 0.09375 0  0.9375 0.09375 0  0.96875 0.09375 0  1 0.09375 0  0 0.125 0  0.03125 0.125 0  0.0625 0.125 0  0.09375 0.125 0  0.125 0.125 0  0.15625 0.125 0  0.1875 0.125 0  0.21875 0.125 0  0.25 0.125 0  0.28125 0.125 0  0.3125 0.125 0  0.34375 0.125 0  0.375 0.125 0  0.40625 0.125 0  0.4375 0.125 0  0.46875 0.125 0  0.5 0.125 0  0.53125 0.125 0  0.5625 0.125 0  0.59375 0.125 0  0.625 0.125 0  0.65625 0.125 0  0.6875 0.125 0  0.71875 0.125 0  0.75 0.125 0  0.78125 0.125 0  0.8125 0.125 0  0.84375 0.125 0  0.875 0.125 0  0.90625 0.125 0  0.9375 0.125 0  0.96875 0.125 0  1 0.125 0  0 0.15625 0  0.03125 0.15625 0  0.0625 0.15625 0  0.09375 0.15625 0  0.125 0.15625 0  0.15625 0.15625 0  0.1875 0.15625 0  0.21875 0.15625 0  0.25 0.15625 0  0.28125 0.15625 0  0.3125 0.15625 0  0.34375 0.15625 0  0.375 0.15625 0  0.40625 0.15625 0  0.4375 0.15625 0  0.46875 0.15625 0  0.5 0.15625 0  0.53125 0.15625 0  0.5625 0.15625 0  0.59375 0.15625 0  0.625 0.15625 0  0.65625 0.15625 0  0.6875 0.15625 0  0.71875 0.15625 0  0.75 0.15625 0  0.78125 0.15625 0  0.8125 0.15625 0  0.84375 0.15625 0  0.875 0.15625 0  0.90625 0.15625 0  0.9375 0.15625 0  0.96875 0.15625 0  1 0.15625 0  0 0.1875 0  0.03125 0.1875 0  0.0625 0.1875 0  0.09375 0.1875 0  0.125 0.1875 0  0.15625 0.1875 0  0.1875 0.1875 0  0.21875 0.1875 0  0.25 0.1875 0  0.28125 0.1875 0  0.3125 0.1875 0  0.34375 0.1875 0  0.375 0.1875 0  0.40625 0.1875 0  0.4375 0.1875 0  0.46875 0.1875 0  0.5 0.1875 0  0.53125 0.1875 0  0.5625 0.1875 0  0.59375 0.1875 0  0.625 0.1875 0  0.65625 0.1875 0  0.6875 0.1875 0  0.71875 0.1875 0  0.75 0.1875 0  0.78125 0.1875 0  0.8125 0.1875 0  0.84375 0.1875 0  0.875 0.1875 0  0.90625 0.1875 0  0.9375 0.1875 0  0.96875 0.1875 0  1 0.1875 0  0 0.21875 0  0.03125 0.21875 0  0.0625 0.21875 0  0.09375 0.21875 0  0.125 0.21875 0  0.15625 0.21875 0  0.1875 0.21875 0  0.21875 0.21875 0  0.25 0.21875 0  0.28125 0.21875 0  0.3125 0.21875 0  0.34375 0.21875 0  0.375 0.21875 0  0.40625 0.21875 0  0.4375 0.21875 0  0.46875 0.21875 0  0.5 0.21875 0  0.53125 0.21875 0  0.5625 0.21875 0  0.59375 0.21875 0  0.625 0.21875 0  0.65625 0.21875 0  0.6875 0.21875 0  0.71875 0.21875 0  0.75 0.21875 0  0.78125 0.21875 0  0.8125 0.21875 0  0.84375 0.21875 0  0.875 0.21875 0  0.90625 0.21875 0  0.9375 0.21875 0  0.96875 0.21875 0  1 0.21875 0  0 0.25 0  0.03125 0.25 0  0.0625 0.25 0  0.09375 0.25 0  0.125 0.25 0  0.15625 0.25 0  0.1875 0.25 0  0.21875 0.25 0  0.25 0.25 0  0.28125 0.25 0  0.3125 0.25 0  0.34375 0.25 0  0.375 0.25 0  0.40625 0.25 0  0.4375 0.25 0  0.46875 0.25 0  0.5 0.25 0  0.53125 0.25 0  0.5625 0.25 0  0.59375 0.25 0  0.625 0.25 0  0.65625 0.25 0  0.6875 0.25 0  0.71875 0.25 0  0.75 0.25 0  0.78125 0.25 0  0.8125 0.25 0  0.84375 0.25 0  0.875 0.25 0  0.90625 0.25 0  0.9375 0.25 0  0.96875 0.25 0  1 0.25 0  0 0.28125 0  0.03125 0.28125 0  0.0625 0.28125 0  0.09375 0.28125 0  0.125 0.28125 0  0.15625 0.28125 0  0.1875 0.28125 0  0.21875 0.28125 0  0.25 0.28125 0  0.28125 0.28125 0  0.3125 0.28125 0  0.34375 0.28125 0  0.375 0.28125 0  0.40625 0.28125 0  0.4375 0.28125 0  0.46875 0.28125 0  0.5 0.28125 0  0.53125 0.28125 0  0.5625 0.28125 0  0.59375 0.28125 0  0.625 0.28125 0  0.65625 0.28125 0  0.6875 0.28125 0  0.71875 0.28125 0  0.75 0.28125 0  0.78125 0.28125 0  0.8125 0.28125 0  0.84375 0.28125 0  0.875 0.28125 0  0.90625 0.28125 0  0.9375 0.28125 0  0.96875 0.28125 0  1 0.28125 0  0 0.3125 0  0.03125 0.3125 0  0.0625 0.3125 0  0.09375 0.3125 0  0.125 0.3125 0  0.15625 0.3125 0  0.1875 0.3125 0  0.21875 0.3125 0  0.25 0.3125 0  0.28125 0.3125 0  0.3125 0.3125 0  0.34375 0.3125 0  0.375 0.3125 0  0.40625 0.3125 0  0.4375 0.3125 0  0.46875 0.3125 0  0.5 0.3125 0  0.53125 0.3125 0  0.5625 0.3125 0  0.59375 0.3125 0  0.625 0.3125 0  0.65625 0.3125 0  0.6875 0.3125 0  0.71875 0.3125 0  0.75 0.3125 0  0.78125 0.3125 0  0.8125 0.3125 0  0.84375 0.3125 0  0.875 0.3125 0  0.90625 0.3125 0  0.9375 0.3125 0  0.96875 0.3125 0  1 0.3125 0  0 0.34375 0  0.03125 0.34375 0  0.0625 0.34375 0  0.09375 0.34375 0  0.125 0.34375 0  0.15625 0.34375 0  0.1875 0.34375 0  0.21875 0.34375 0  0.25 0.34375 0  0.28125 0.34375 0  0.3125 0.34375 0  0.34375 0.34375 0  0.375 0.34375 0  0.40625 0.34375 0  0.4375 0.34375 0  0.46875 0.34375 0  0.5 0.34375 0  0.53125 0.34375 0  0.5625 0.34375 0  0.59375 0.34375 0  0.625 0.34375 0  0.65625 0.34375 0  0.6875 0.34375 0  0.71875 0.34375 0  0.75 0.34375 0  0.78125 0.34375 0  0.8125 0.34375 0  0.84375 0.34375 0  0.875 0.34375 0  0.90625 0.34375 0  0.9375 0.34375 0  0.96875 0.34375 0  1 0.34375 0  0 0.375 0  0.03125 0.375 0  0.0625 0.375 0  0.09375 0.375 0  0.125 0.375 0  0.15625 0.375 0  0.1875 0.375 0  0.21875 0.375 0  0.25 0.375 0  0.28125 0.375 0  0.3125 0.375 0  0.34375 0.375 0  0.375 0.375 0  0.40625 0.375 0  0.4375 0.375 0  0.46875 0.375 0  0.5 0.375 0  0.53125 0.375 0  0.5625 0.375 0  0.59375 0.375 0  0.625 0.375 0  0.65625 0.375 0  0.6875 0.375 0  0.71875 0.375 0  0.75 0.375 0  0.78125 0.375 0  0.8125 0.375 0  0.84375 0.375 0  0.875 0.375 0  0.90625 0.375 0  0.9375 0.375 0  0.96875 0.375 0  1 0.375 0  0 0.40625 0  0.03125 0.40625 0  0.0625 0.40625 0  0.09375 0.40625 0  0.125 0.40625 0  0.15625 0.40625 0  0.1875 0.40625 0  0.21875 0.40625 0  0.25 0.40625 0  0.28125 0.40625 0  0.3125 0.40625 0  0.34375 0.40625 0  0.375 0.40625 0  0.40625 0.40625 0  0.4375 0.40625 0  0.46875 0.40625 0  0.5 0.40625 0  0.53125 0.40625 0  0.5625 0.40625 0  0.59375 0.40625 0  0.625 0.40625 0  0.65625 0.40625 0  0.6875 0.40625 0  0.71875 0.40625 0  0.75 0.40625 0  0.78125 0.40625 0  0.8125 0.40625 0  0.84375 0.40625 0  0.875 0.40625 0  0.90625 0.40625 0  0.9375 0.40625 0  0.96875 0.40625 0  1 0.40625 0  0 0.4375 0  0.03125 0.4375 0  0.0625 0.4375 0  0.09375 0.4375 0  0.125 0.4375 0  0.15625 0.4375 0  0.1875 0.4375 0  0.21875 0.4375 0  0.25 0.4375 0  0.28125 0.4375 0  0.3125 0.4375 0  0.34375 0.4375 0  0.375 0.4375 0  0.40625 0.4375 0  0.4375 0.4375 0  0.46875 0.4375 0  0.5 0.4375 0  0.53125 0.4375 0  0.5625 0.4375 0  0.59375 0.4375 0  0.625 0.4375 0  0.65625 0.4375 0  0.6875 0.4375 0  0.71875 0.4375 0  0.75 0.4375 0  0.78125 0.4375 0  0.8125 0.4375 0  0.84375 0.4375 0  0.875 0.4375 0  0.90625 0.4375 0  0.9375 0.4375 0  0.96875 0.4375 0  1 0.4375 0  0 0.46875 0  0.03125 0.46875 0  0.0625 0.46875 0  0.09375 0.46875 0  0.125 0.46875 0  0.15625 0.46875 0  0.1875 0.46875 0  0.21875 0.46875 0  0.25 0.46875 0  0.28125 0.46875 0  0.3125 0.46875 0  0.34375 0.46875 0  0.375 0.46875 0  0.40625 0.46875 0  0.4375 0.46875 0  0.46875 0.46875 0  0.5 0.46875 0  0.53125 0.46875 0  0.5625 0.46875 0  0.59375 0.46875 0  0.625 0.46875 0  0.65625 0.46875 0  0.6875 0.46875 0  0.71875 0.46875 0  0.75 0.46875 0  0.78125 0.46875 0  0.8125 0.46875 0  0.84375 0.46875 0  0.875 0.46875 0  0.90625 0.46875 0  0.9375 0.46875 0  0.96875 0.46875 0  1 0.46875 0  0 0.5 0  0.03125 0.5 0  0.0625 0.5 0  0.09375 0.5 0  0.125 0.5 0  0.15625 0.5 0  0.1875 0.5 0  0.21875 0.5 0  0.25 0.5 0  0.28125 0.5 0  0.3125 0.5 0  0.34375 0.5 0  0.375 0.5 0  0.40625 0.5 0  0.4375 0.5 0  0.46875 0.5 0  0.5 0.5 0  0.53125 0.5 0  0.5625 0.5 0  0.59375 0.5 0  0.625 0.5 0  0.65625 0.5 0  0.6875 0.5 0  0.71875 0.5 0  0.75 0.5 0  0.78125 0.5 0  0.8125 0.5 0  0.84375 0.5 0  0.875 0.5 0  0.90625 0.5 0  0.9375 0.5 0  0.96875 0.5 0  1 0.5 0  0 0.53125 0  0.03125 0.53125 0  0.0625 0.53125 0  0.09375 0.53125 0  0.125 0.53125 0  0.15625 0.53125 0  0.1875 0.53125 0  0.21875 0.53125 0  0.25 0.53125 0  0.28125 0.53125 0  0.3125 0.53125 0  0.34375 0.53125 0  0.375 0.53125 0  0.40625 0.53125 0  0.4375 0.53125 0  0.46875 0.53125 0  0.5 0.53125 0  0.53125 0.53125 0  0.5625 0.53125 0  0.59375 0.53125 0  0.625 0.53125 0  0.65625 0.53125 0  0.6875 0.53125 0  0.71875 0.53125 0  0.75 0.53125 0  0.78125 0.531
[...]
<PointData  Scalars="theta"> 
<DataArray  type="Float64"  Name="theta"  format="ascii">4.7171566403768952e-05  1.2897164984671140e-04  1.3990864717405049e-04  3.6232630157738993e-05  1.8900157808867026e-05  3.8600517279517638e-05  1.3151923617216695e-05  1.5173965397072866e-04  4.2536802167391005e-05  2.0537711447475224e-04  5.0584778148233616e-05  2.0021393758872685e-04  5.5727231003913782e-05  1.4084750009022725e-04  5.1718540779283402e-05  3.3128163633919652e-05  1.8320018439227725e-05  4.9241424709190690e-06  3.4550874865025449e-05  1.9440182255681498e-05  6.8676945256526752e-06  2.0563232654958986e-04  1.4851462781325335e-04  7.8548094577474440e-05  3.6551918433863991e-05  3.8068192076760410e-04  3.0048347506820606e-04  2.5102698603400803e-04  1.9164493256240442e-04  1.3758171276129113e-04  1.0510010730145449e-04  8.6441388420693932e-05  7.4029968623293328e-05  1.6785165229387085e-06  4.4058117736889002e-05  1.2512000969911683e-04  1.3563345948658354e-04  3.3972324861705657e-05  1.8271600373276998e-05  3.7503799210353513e-05  1.2269491350376407e-05  1.4786442428875362e-04  3.9553476438975504e-05  2.0021393758872685e-04  4.4960632581034494e-05  1.9478154071134692e-04  5.0584778148233616e-05  1.3754601880622074e-04  4.8513282313979148e-05  3.2120499746425426e-05  1.7238249139353604e-05  4.0634464873046910e-06  3.3708099010818014e-05  1.8175613847286544e-05  5.9229831775214734e-06  1.9956722777268363e-04  1.4299083003505134e-04  7.3363711717365349e-05  3.1523882895670672e-05  3.6904942561180229e-04  2.9315398722267036e-04  2.4267864946448983e-04  1.8032858999374516e-04  1.2835062640455570e-04  9.8586524289319093e-05  8.0378807198424511e-05  2.1550187751563054e-05  8.5204478311079126e-07  4.1218949438043028e-05  1.2095892738261999e-04  1.3143091174113523e-04  3.1769036179600738e-05  1.7592013271102706e-05  3.6390734232809401e-05  1.1459672334379678e-05  1.4425766854165125e-04  3.6429286795598554e-05  1.9478154071134692e-04  3.8775904990165984e-05  1.8896453826851682e-04  4.4960632581034494e-05  1.3425647873887309e-04  4.5486871356097680e-05  3.1173109776207480e-05  1.6161826603003466e-05  3.1296480672384085e-06  3.2911258905427158e-05  1.6962900980181492e-05  4.8876987880028317e-06  1.9392504181234377e-04  1.3705305060063329e-04  6.8636048909854612e-05  2.6013790619406857e-05  3.5761457880162205e-04  2.8622399529404537e-04  2.3365255012015721e-04  1.6906817969056806e-04  1.1987914417197625e-04  9.2436387189181711e-05  7.4674201755226734e-06  2.1045048920678343e-05  0.0000000000000000e+00  3.8626509503640659e-05  1.1646002606786218e-04  1.2736529380612217e-04  2.9540909518160664e-05  1.6861494435835034e-05  3.5278742786444789e-05  1.0721194612720422e-05  1.4084750009022727e-04  3.3067628831662381e-05  1.8896453826851682e-04  3.1998224229881347e-05  1.8268019573589579e-04  3.8775904990165984e-05  1.3088127332907593e-04  4.2536802167390984e-05  3.0291780289986468e-05  1.5110512624805436e-05  2.1311261999614519e-06  3.2139815285627331e-05  1.5819733648421906e-05  3.7644834533708896e-06  1.8870944948686614e-04  1.3073798487505119e-04  6.4319227725438975e-05  2.0035703629401977e-05  3.4655230869988491e-04  2.7951487256988263e-04  2.2394998872819443e-04  1.5807042894473597e-04  1.1215396018072083e-04  0.0000000000000000e+00  6.9663913751189578e-06  2.0541737140048805e-05  1.4840442949696830e-04  3.6232630157739000e-05  1.1162395407955332e-04  1.2349120623197381e-04  2.7207577232818729e-05  1.6084558460114819e-05  3.4185645246054394e-05  1.0046891811764912e-05  1.3754601880622077e-04  2.9391084920243171e-05  1.8268019573589579e-04  2.4644887272167562e-05  1.7588565654345808e-04  3.1998224229881347e-05  1.2733007689838142e-04  3.9553476438975483e-05  2.9477086244653274e-05  1.4102309367263703e-05  1.0817974896361417e-06  3.1371161921052868e-05  1.4758303865944137e-05  2.5634158040904500e-06  1.8389006021857546e-04  1.2411548086651875e-04  6.0333041223607596e-05  1.3643263402762861e-05  3.3601117969365551e-04  2.7283001625256825e-04  2.1363092693523216e-04  1.4752365761141375e-04  6.0121406656620022e-05  2.1916663288809648e-05  6.5065910421349942e-06  2.0025318245608901e-05  1.4418796218398539e-04  3.3972324861705657e-05  1.0648059825148188e-04  1.1984884913548103e-04  2.4696889356953857e-05  1.5269798671829971e-05  3.3128163633919666e-05  9.4242353225362984e-06  1.3425647873887311e-04  2.5348084557555546e-05  1.7588565654345808e-04  1.6781875735682160e-05  1.6858189983418617e-04  2.4644887272167562e-05  1.2352746107729975e-04  3.6429286795598534e-05  2.8724280524037530e-05  1.3151923617216686e-05  0.0000000000000000e+00  3.0582491486507193e-05  1.3784216613815879e-05  1.3012353664502930e-06  1.7940455577950131e-04  1.1728298263818326e-04  5.6569276572523049e-05  6.9255626906658443e-06  3.2610057356872145e-04  2.6597107465466027e-04  2.0280949908985734e-04  1.9250866333135411e-05  5.8121965298811825e-05  2.1293966953665508e-05  6.0872969830763260e-06  1.9481972074926973e-05  1.3990864717405052e-04  3.1769036179600738e-05  1.0108684685302404e-04  1.1646046968309250e-04  2.1951025761516313e-05  1.4429203512838309e-05  3.2120499746425439e-05  8.8363219163646687e-06  1.3088127332907596e-04  2.0917466495659040e-05  1.6858189983418617e-04  8.5187780257100778e-06  1.6081406268695918e-04  1.6781875735682160e-05  1.1941934171952024e-04  3.3067628831662367e-05  2.8023628799596108e-05  1.2269491350376399e-05  4.6430462936531775e-05  2.9752697950379494e-05  1.2895941924731635e-05  0.0000000000000000e+00  1.7516353509515310e-04  1.1035760041564198e-04  5.2900453572199098e-05  0.0000000000000000e+00  3.1688102335307195e-04  2.5875449196901656e-04  7.1966323157473310e-05  1.7730308277592382e-05  5.5960198558999408e-05  2.0661989144799581e-05  5.7044402628871142e-06  1.8900157808867030e-05  1.3563345948658357e-04  2.9540909518160664e-05  9.5522063981384492e-05  1.1332827836718999e-04  1.8931470499912128e-05  1.3577180932533401e-05  3.1173109776207501e-05  8.2632387332438182e-06  1.2733007689838145e-04  1.6110537888019871e-05  1.6081406268695918e-04  0.0000000000000000e+00  1.5266806153977456e-04  8.5187780257100778e-06  1.1497770318076234e-04  2.9391084920243157e-05  2.7361166305969939e-05  1.1459672334379669e-05  4.5111280416426809e-05  2.8864156274273626e-05  1.2084859757592461e-05  2.4711677081201683e-04  1.7105768208117267e-04  1.0346644765502149e-04  4.9190271420617971e-05  4.0379836709481627e-04  3.0835854364625269e-04  6.0872969830763277e-06  7.0210897869108090e-05  1.6094173253625532e-05  5.3636417963641466e-05  2.0030620867179591e-05  5.3509073679728529e-06  1.8271600373277001e-05  1.3143091174113526e-04  2.7207577232818729e-05  8.9881630997189899e-05  1.1043402431662794e-04  1.5622419082448320e-05  1.2729369567368834e-05  3.0291780289986482e-05  7.6836951038022956e-06  1.2352746107729981e-04  1.0970431387490361e-05  1.5266806153977456e-04  3.0396561420418660e-04  1.4426375731671200e-04  0.0000000000000000e+00  1.1020318553374958e-04  2.5348084557555536e-05  2.6719817482526973e-05  1.0721194612720412e-05  4.3772435089262335e-05  2.7904228837069078e-05  1.1335900130031703e-05  2.4009568801717983e-04  1.6696667963764589e-04  9.6736037450397442e-05  4.5304905319757073e-05  3.9232564608734829e-04  1.7699518006013038e-05  5.7044402628871159e-06  6.8551152558651653e-05  1.4304781731597609e-05  5.1164984433043187e-05  1.9409980201639226e-05  5.0171009561899220e-06  1.7592013271102709e-05  1.2736529380612220e-04  2.4696889356953860e-05  8.4269076472240611e-05  1.0774028270977723e-04  1.2032316369792686e-05  1.1901334191878757e-05  2.9477086244653288e-05  7.0767871192866598e-06  1.1941934171952028e-04  5.5687857131254237e-06  1.4426375731671200e-04  2.9532934181725684e-04  1.3574520127554850e-04  1.9870448138840566e-04  1.0512529520760072e-04  2.0917466495659030e-05  2.6080788370933281e-05  1.0046891811764903e-05  4.2434881054369423e-05  2.6866369337825277e-05  1.0628731067568738e-05  2.3296995389908803e-04  1.6276914037799541e-04  9.0281617901515637e-05  4.1124214200875862e-05  3.9267520524199898e-06  1.7199115344148843e-05  5.3509073679728546e-06  6.6944305812884186e-05  1.2337034100438103e-05  4.8573233345337780e-05  1.8809561604669737e-05  4.6917148721126597e-06  1.6861494435835038e-05  1.2349120623197384e-04  2.1951025761516317e-05  7.8787440008659109e-05  1.0519336429109850e-04  8.1933764151689482e-06  1.1107253660047730e-05  2.8724280524037544e-05  6.4237483180575010e-06  1.1497770318076238e-04  0.0000000000000000e+00  1.3574520127554850e-04  2.8656434322673556e-04  1.2726874913280699e-04  1.9305888877666662e-04  9.9800196388188331e-05  1.6110537888019864e-05  2.5425117830276834e-05  9.4242353225362916e-06  4.1120053471422988e-05  2.5750727339715927e-05  9.9394004738680830e-06  2.2585109242357045e-04  1.5835273170748822e-04  8.4197340432467407e-05  1.0379730497905083e-05  3.6737065180819532e-06  1.6736547059230019e-05  5.0171009561899237e-06  6.5343270914429563e-05  1.0180631079471321e-05  4.5899299937035009e-05  1.8237428594881741e-05  4.3626606655156852e-06  1.6084558460114823e-05  1.1984884913548105e-04  1.8931470499912131e-05  7.3530586343767195e-05  1.0272761997056555e-04  4.1591033124805386e-06  1.0358711323771130e-05  2.8023628799596121e-05  5.7095394799375408e-06  1.1020318553374961e-04  3.0396561420418660e-04  1.2726874913280699e-04  2.7780779831992994e-04  1.1899001813056782e-04  1.8732914693116395e-04  9.4306243013079794e-05  1.0970431387490355e-05  2.4735259110291348e-05  8.8363219163646620e-06  3.9848066351593933e-05  2.4564197489273491e-05  9.2422989606413150e-06  2.1885318790307415e-04  1.5362364791542425e-04  1.0775876689085925e-05  1.0100568806256275e-05  3.4426510541607920e-06  1.6309117826063243e-05  4.6917148721126622e-06  6.3700542283707878e-05  7.8410759144188500e-06  4.3189015898713284e-05  1.7699518006013034e-05  4.0180694817343914e-06  1.5269798671829974e-05  1.1646046968309253e-04  1.5622419082448327e-05  6.8575197858535193e-05  1.0027079406713813e-04  0.0000000000000000e+00  9.6636904750328104e-06  2.7361166305969953e-05  4.9241424709190732e-06  1.0512529520760075e-04  2.9532934181725684e-04  1.1899001813056782e-04  2.6920003633467391e-04  1.1105076902149049e-04  1.8160493131876154e-04  8.8737602412829460e-05  5.5687857131254211e-06  2.3996559425798005e-05  8.2632387332438114e-06  3.8636002263385240e-05  2.3319903441949993e-05  8.5122823529133439e-06  2.1208329310369841e-04  3.0552023426034748e-05  1.0103643648213491e-05  9.8426136638886372e-06  3.2292926285716165e-06  1.5911300672057002e-05  4.3626606655156860e-06  6.1972157980611756e-05  5.3393614739084212e-06  4.0492127736792760e-05  1.7199115344148840e-05  3.6472860692369147e-06  1.4429203512838311e-05  1.1332827836719001e-04  1.2032316369792689e-05  6.3974124353507127e-05  9.7749988145821599e-05  3.0402519592140246e-05  9.0258612376253485e-06  2.6719817482526987e-05  4.0634464873046935e-06  9.9800196388188359e-05  2.8656434322673556e-04  1.1105076902149049e-04  2.6087273736573677e-04  1.0356681262391037e-04  1.7597797615913552e-04  8.3196485430085256e-05  0.0000000000000000e+00  2.3198512340255311e-05  7.6836951038022905e-06  3.7496438392255801e-05  2.2036153841660928e-05  7.7267774945969348e-06  1.6872983790366446e-06  2.9821343570152655e-05  9.4483678085778198e-06  9.6025295221520586e-06  3.0278392094015261e-06  1.5535166660454676e-05  4.0180694817343922e-06  6.0121406656620042e-05  2.7103546654527257e-06  3.7858147002909664e-05  1.6736547059230016e-05  3.2417714355956444e-06  1.3577180932533403e-05  1.1043402431662797e-04  8.1933764151689499e-06  5.9751662235579143e-05  9.5097741570170682e-05  2.9538723069845736e-05  8.4442217938187752e-06  2.6080788370933295e-05  3.1296480672384106e-06  9.4306243013079821e-05  2.7780779831992994e-04  1.0356681262391037e-04  2.5293773560771402e-04  9.6617966212309841e-05  1.7053436166569700e-04  7.7784620161505821e-05  3.8600517279517624e-05  2.2335675508560684e-05  7.0767871192866547e-06  3.6436335084609956e-05  2.0734952383142265e-05  6.6432123978036803e-06  1.3923737405696274e-06  2.9071635540485300e-05  8.7857049533885832e-06  9.3755312380306460e-06  2.8314674895246857e-06  1.5171020602196225e-05  3.6472860692369155e-06  5.8121965298811846e-05  0.0000000000000000e+00  3.5332176635089754e-05  1.6309117826063240e-05  2.7958374686995657e-06  1.2729369567368835e-05  1.0774028270977726e-04  4.1591033124805394e-06  5.5901179420227989e-05  9.2257719907948136e-05  2.8662051403969735e-05  7.9131277680927777e-06  2.5425117830276845e-05  2.1311261999614532e-06  8.8737602412829487e-05  2.6920003633467391e-04  9.6617966212309841e-05  2.4547736993170817e-04  9.0240923832043800e-05  1.6534719464592729e-04  7.2594676618178400e-05  3.7503799210353499e-05  2.1408173271836440e-05  6.4237483180574959e-06  3.5456383924822571e-05  1.1351640845099352e-05  6.2775067128918607e-06  1.0723999441512755e-06  2.8282835999192264e-05  8.0917530964009882e-06  9.1557677286311322e-06  2.6328820439749794e-06  1.4808191633632693e-05  3.2417714355956453e-06  5.5960198558999429e-05  9.6710422329245754e-05  3.2951063278572246e-05  1.5911300672056999e-05  2.3071501298665015e-06  1.1901334191878758e-05  1.0519336429109852e-04  0.0000000000000000e+00  5.2385309853318643e-05  8.9189529873496821e-05  2.7786225272169901e-05  7.4227113838804590e-06  2.4735259110291362e-05  1.0817974896361421e-06  8.3196485430085283e-05  2.6087273736573677e-04  9.0240923832043800e-05  2.3853720753296275e-04  8.4425669269137362e-05  1.6047030060480460e-04  6.7702361154773212e-05  3.6390734232809387e-05  2.0421737576433740e-05  5.7095394799375366e-06  9.4635820738211209e-07  1.1006356431818467e-05  5.9068294636146831e-06  7.3024812014554342e-07  2.7438190631378515e-05  7.3450542551267161e-06  8.9367990877932450e-06  2.4249199745293131e-06  1.4435913967924201e-05  2.7958374686995666e-06  5.3636417963641486e-05  9.3962685378548002e-05  3.0740201787128931e-05  1.5535166660454673e-05  1.7769565730284753e-06  1.1107253660047732e-05  1.0272761997056556e-04  2.0126623199207073e-04  4.9138728350149205e-05  8.5872247702655066e-05  2.6925280348888436e-05  6.9596593288993384e-06  2.3996559425798016e-05  0.0000000000000000e+00  7.7784620161505848e-05  2.5293773560771402e-04  8.4425669269137362e-05  2.3212177599651540e-04  7.9115769830022758e-05  1.5593346714157062e-04  6.3159850890644303e-05  3.5278742786444775e-05  1.9387278929313057e-05  2.4517990021701329e-06  8.7998521635965622e-07  1.0681725377679624e-05  5.5379843273359381e-06  3.7068690873363091e-07  2.6525686147823442e-05  6.5284122564457261e-06  8.7121281228556229e-06  2.2011507969985227e-06  1.4044224883208389e-05  2.3071501298665024e-06  5.1164984433043207e-05  9.1173992592938550e-05  2.8711266825450190e-05  1.5171020602196219e-05  1.2100142340657056e-06  1.0358711323771132e-05  1.0027079406713815e-04  1.9554785491075093e-04  4.6073300103658454e-05  8.2306351440138880e-05  2.6092387224725206e-05  6.5082878465797756e-06  2.3198512340255321e-05  1.9870448138840571e-04  7.2594676618178427e-05  2.4547736993170817e-04  7.9115769830022758e-05  2.2619369343776659e-04  7.4212567087529266e-05  1.5173965397072864e-04  5.8991132983916046e-05  3.4185645246054381e-05  3.6786421815398673e-06  2.3388261659088040e-06  8.1047828683559050e-07  1.0379730497905083e-05  5.1777428473730287e-06  0.0000000000000000e+00  2.5539099652162743e-05  5.6303721469292103e-06  8.4757422938772534e-06  1.9564211974854263e-06  1.3624804797737633e-05  1.7769565730284760e-06  4.8573233345337801e-05  8.8387989451434163e-05  2.6861071611089623e-05  1.4808191633632688e-05  6.1422470469367617e-07  9.6636904750328121e-06  9.7749988145821612e-05  1.8974424372154248e-04  4.3085197844573987e-05  7.8513878257678143e-05  2.5298731511253942e-05  6.0518279908476008e-06  2.2335675508560698e-05  1.9305888877666668e-04  6.7702361154773239e-05  2.3853720753296275e-04  7.4212567087529266e-05  2.2067630541364110e-04  6.9582954009762043e-05  1.4786442428875359e-04  5.5189659764357475e-05  6.5389246536871861e-07  3.5701411079474695e-06  2.2203534383859301e-06  7.3568816528241778e-07  1.0100568806256275e-05  4.8322736144586290e-06  4.4136675295483688e-05  2.4478573318753866e-05  4.6462335437641100e-06  8.2226207021277205e-06  1.6872983790366446e-06  1.3171688350209198e-05  1.2100142340657061e-06  4.5899299937035036e-05  8.5649323437901007e-05  2.5171661384123480e-05  1.4435913967924196e-05  0.0000000000000000e+00  9.0258612376253502e-06  9.5097741570170696e-05  1.8394623001108954e-04  4.0063410293695814e-05  7.4536774939282699e-05  2.4552548709547506e-05  5.5738154358279358e-06  2.1408173271836450e-05  1.8732914693116401e-04  6.3159850890644331e-05  2.3212177599651540e-04  6.9582954009762043e-05  2.1545964426622263e-04  6.5070123767462329e-05  1.4425766854165122e-04  1.6150853973345885e-06  5.6394384721398068e-07  3.4692056975571537e-06  2.0981240369596416e-06  6.5389246536871861e-07  9.8426136638886372e-06  4.5066160314410200e-06  4.2882663880070045e-05  2.3350661180359650e-05  3.5785080166823591e-06  7.9491632297285156e-06  1.3923737405696274e-06  1.2681785477237367e-05  6.1422470469367638e-07  4.3189015898713304e-05  8.2999890204289172e-05  2.3611646744856008e-05  1.4044224883208384e-05  3.0402519592140257e-05  8.4442217938187769e-06  9.2257719907948150e-05  1.7824673066083304e-04  3.6898942773096561e-05  7.0433560906971987e-05  2.3858396432314081e-05  5.0594693506439352e-06  2.0421737576433750e-05  1.8160493131876162e-04  5.8991132983916066e-05  2.2619369343776659e-04  6.5070123767462329e-05  2.1040924590950380e-04  6.0506419763039797e-05  2.8328378528594423e-06  1.5062412281448972e-06  4.6537151565621409e-07  3.3759017980577207e-06  1.9742329951443709e-06  5.6394384721398068e-07  9.6025295221520586e-06  4.2042432747138273e-06  4.1609961052258263e-05  2.2167838549151082e-05  2.4367762851537644e-06  7.6535050118582012e-06  1.0723999441512755e-06  1.2155166777422960e-05  0.0000000000000000e+00  4.0492127736792780e-05  8.0475271183776557e-05  2.2138678043629466e-05  1.3624804797737630e-05  2.9538723069845742e-05  7.9131277680927794e-06  8.9189529873496835e-05  1.7273293565300832e-04  3.3493945427691714e-05  6.6274565973493721e-05  2.3216727526804740e-05  4.4969445524246209e-06  1.9387278929313067e-05  1.7597797615913561e-04  5.5189659764357496e-05  2.2067630541364110e-04  6.0506419763039797e-05  2.0537711447475224e-04  3.6786421815398673e-06  2.7482373067807706e-06  1.4051795203639721e-06  3.5842703209495223e-07  3.2896857397702156e-06  1.8509542984043424e-06  4.6537151565621409e-07  9.3755312380306460e-06  3.9267520524199898e-06  4.0338485723465374e-05  2.0947509573622289e-05  1.2369508986055859e-06  7.3356886550366672e-06  7.3024812014554342e-07  1.1595086744410671e-05  9.6710422329245781e-05  3.7858147002909685e-05  7.8101663507309333e-05  2.0702865246923374e-05  1.3171688350209192e-05  2.8662051403969742e-05  7.4227113838804615e-06  8.5872247702655080e-05  1.6747889430734840e-04  2.9770002542083949e-05  6.2136127329059110e-05  2.2623803071819785e-05  3.8783505636087621e-06  1.8320018439227735e-05  1.7053436166569706e-04  5.1718540779283423e-05  2.1545964426622263e-04  5.5727231003913782e-05  0.0000000000000000e+00  3.5701411079474695e-06  2.6568399220916044e-06  1.3124339399658902e-06  2.4407001121566949e-07  3.2094426860055961e-06  1.7305511920774506e-06  3.5842703209495223e-07  9.1557677286311322e-06  3.6737065180819532e-06  3.9088614099799267e-05  1.9710590907806846e-05  0.0000000000000000e+00  6.9976782583622180e-06  3.7068690873363091e-07  1.1007740163250428e-05  9.3962685378548030e-05  3.5332176635089774e-05  7.5893564942037541e-05  1.9250866333135405e-05  1.2681785477237363e-05  2.7786225272169907e-05  6.9596593288993409e-06  8.2306351440138893e-05  1.6253912606144401e-04  2.5674878751945856e-05  5.8094221620208564e-05  2.2071956120512210e-05  3.2004496350997649e-06  1.7238249139353614e-05  1.6534719464592735e-04  4.8513282313979168e-05  2.1040924590950380e-04  0.0000000000000000e+00  0.0000000000000000e+00  3.4692056975571537e-06  2.5580224071115864e-06  1.227858814470667