<?xml version="1.0"?>
<VTKFile type="UnstructuredGrid"  version="0.1"  >
<UnstructuredGrid>
<Piece  NumberOfPoints="1089" NumberOfCells="2048">
<Points>
<DataArray  type="Float64"  NumberOfComponents="3"  format="ascii">0 0 0  0.03125 0 0  0.0625 0 0  0.09375 0 0  0.125 0 0  0.15625 0 0  0.1875 0 0  0.21875 0 0  0.25 0 0  0.28125 0 0  0.3125 0 0  0.34375 0 0  0.375 0 0  0.40625 0 0  0.4375 0 0  0.46875 0 0  0.5 0 0  0.53125 0 0  0.5625 0 0  0.59375 0 0  0.625 0 0  0.65625 0 0  0.6875 0 0  0.71875 0 0  0.75 0 0  0.78125 0 0  0.8125 0 0  0.84375 0 0  0.875 0 0  0.90625 0 0  0.9375 0 0  0.96875 0 0  1 0 0  0 0.03125 0  0.03125 0.03125 0  0.0625 0.03125 0  0.09375 0.03125 0  0.125 0.03125 0  0.15625 0.03125 0  0.1875 0.03125 0  0.21875 0.03125 0  0.25 0.03125 0  0.28125 0.03125 0  0.3125 0.03125 0  0.34375 0.03125 0  0.375 0.03125 0  0.40625 0.03125 0  0.4375 0.03125 0  0.46875 0.03125 0  0.5 0.03125 0  0.53125 0.03125 0  0.5625 0.03125 0  0.59375 0.03125 0  0.625 0.03125 0  0.65625 0.03125 0  0.6875 0.03125 0  0.71875 0.03125 0  0.75 0.03125 0  0.78125 0.03125 0  0.8125 0.03125 0  0.84375 0.03125 0  0.875 0.03125 0  0.90625 0.03125 0  0.9375 0.03125 0  0.96875 0.03125 0  1 0.03125 0  0 0.0625 0  0.03125 0.0625 0  0.0625 0.0625 0  0.09375 0.0625 0  0.125 0.0625 0  0.15625 0.0625 0  0.1875 0.0625 0  0.21875 0.0625 0  0.25 0.0625 0  0.28125 0.0625 0  0.3125 0.0625 0  0.34375 0.0625 0  0.375 0.0625 0  0.40625 0.0625 0  0.4375 0.0625 0  0.46875 0.0625 0  0.5 0.0625 0  0.53125 0.0625 0  0.5625 0.0625 0  0.59375 0.0625 0  0.625 0.0625 0  0.65625 0.0625 0  0.6875 0.0625 0  0.71875 0.0625 0  0.75 0.0625 0  0.78125 0.0625 0  0.8125 0.0625 0  0.84375 0.0625 0  0.875 0.0625 0  0.90625 0.0625 0  0.9375 0.0625 0  0.96875 0.0625 0  1 0.0625 0  0 0.09375 0  0.03125 0.09375 0  0.0625 0.09375 0  0.09375 0.09375 0  0.125 0.09375 0  0.15625 0.09375 0  0.1875 0.09375 0  0.21875 0.09375 0  0.25 0.09375 0  0.28125 0.09375 0  0.3125 0.09375 0  0.34375 0.09375 0  0.375 0.09375 0  0.40625 0.09375 0  0.4375 0.09375 0  0.46875 0.09375 0  0.5 0.09375 0  0.53125 0.09375 0  0.5625 0.09375 0  0.59375 0.09375 0  0.625 0.09375 0  0.65625 0.09375 0  0.6875 0.09375 0  0.71875 0.09375 0  0.75 0.09375 0  0.78125 0.09375 0  0.8125 0.09375 0  0.84375 0.09375 0  0.875 0.09375 0  0.90625 0.09375 0  0.9375 0.09375 0  0.96875 0.09375 0  1 0.09375 0  0 0.125 0  0.03125 0.125 0  0.0625 0.125 0  0.09375 0.125 0  0.125 0.125 0  0.15625 0.125 0  0.1875 0.125 0  0.21875 0.125 0  0.25 0.125 0  0.28125 0.125 0  0.3125 0.125 0  0.34375 0.125 0  0.375 0.125 0  0.40625 0.125 0  0.4375 0.125 0  0.46875 0.125 0  0.5 0.125 0  0.53125 0.125 0  0.5625 0.125 0  0.59375 0.125 0  0.625 0.125 0  0.65625 0.125 0  0.6875 0.125 0  0.71875 0.125 0  0.75 0.125 0  0.78125 0.125 0  0.8125 0.125 0  0.84375 0.125 0  0.875 0.125 0  0.90625 0.125 0  0.9375 0.125 0  0.96875 0.125 0  1 0.125 0  0 0.15625 0  0.03125 0.15625 0  0.0625 0.15625 0  0.09375 0.15625 0  0.125 0.15625 0  0.15625 0.15625 0  0.1875 0.15625 0  0.21875 0.15625 0  0.25 0.15625 0  0.28125 0.15625 0  0.3125 0.15625 0  0.34375 0.15625 0  0.375 0.15625 0  0.40625 0.15625 0  0.4375 0.15625 0  0.46875 0.15625 0  0.5 0.15625 0  0.53125 0.15625 0  0.5625 0.15625 0  0.59375 0.15625 0  0.625 0.15625 0  0.65625 0.15625 0  0.6875 0.15625 0  0.71875 0.15625 0  0.75 0.15625 0  0.78125 0.15625 0  0.8125 0.15625 0  0.84375 0.15625 0  0.875 0.15625 0  0.90625 0.15625 0  0.9375 0.15625 0  0.96875 0.15625 0  1 0.15625 0  0 0.1875 0  0.03125 0.1875 0  0.0625 0.1875 0  0.09375 0.1875 0  0.125 0.1875 0  0.15625 0.1875 0  0.1875 0.1875 0  0.21875 0.1875 0  0.25 0.1875 0  0.28125 0.1875 0  0.3125 0.1875 0  0.34375 0.1875 0  0.375 0.1875 0  0.40625 0.1875 0  0.4375 0.1875 0  0.46875 0.1875 0  0.5 0.1875 0  0.53125 0.1875 0  0.5625 0.1875 0  0.59375 0.1875 0  0.625 0.1875 0  0.65625 0.1875 0  0.6875 0.1875 0  0.71875 0.1875 0  0.75 0.1875 0  0.78125 0.1875 0  0.8125 0.1875 0  0.84375 0.1875 0  0.875 0.1875 0  0.90625 0.1875 0  0.9375 0.1875 0  0.96875 0.1875 0  1 0.1875 0  0 0.21875 0  0.03125 0.21875 0  0.0625 0.21875 0  0.09375 0.21875 0  0.125 0.21875 0  0.15625 0.21875 0  0.1875 0.21875 0  0.21875 0.21875 0  0.25 0.21875 0  0.28125 0.21875 0  0.3125 0.21875 0  0.34375 0.21875 0  0.375 0.21875 0  0.40625 0.21875 0  0.4375 0.21875 0  0.46875 0.21875 0  0.5 0.21875 0  0.53125 0.21875 0  0.5625 0.21875 0  0.59375 0.21875 0  0.625 0.21875 0  0.65625 0.21875 0  0.6875 0.21875 0  0.71875 0.21875 0  0.75 0.21875 0  0.78125 0.21875 0  0.8125 0.21875 0  0.84375 0.21875 0  0.875 0.21875 0  0.90625 0.21875 0  0.9375 0.21875 0  0.96875 0.21875 0  1 0.21875 0  0 0.25 0  0.03125 0.25 0  0.0625 0.25 0  0.09375 0.25 0  0.125 0.25 0  0.15625 0.25 0  0.1875 0.25 0  0.21875 0.25 0  0.25 0.25 0  0.28125 0.25 0  0.3125 0.25 0  0.34375 0.25 0  0.375 0.25 0  0.40625 0.25 0  0.4375 0.25 0  0.46875 0.25 0  0.5 0.25 0  0.53125 0.25 0  0.5625 0.25 0  0.59375 0.25 0  0.625 0.25 0  0.65625 0.25 0  0.6875 0.25 0  0.71875 0.25 0  0.75 0.25 0  0.78125 0.25 0  0.8125 0.25 0  0.84375 0.25 0  0.875 0.25 0  0.90625 0.25 0  0.9375 0.25 0  0.96875 0.25 0  1 0.25 0  0 0.28125 0  0.03125 0.28125 0  0.0625 0.28125 0  0.09375 0.28125 0  0.125 0.28125 0  0.15625 0.28125 0  0.1875 0.28125 0  0.21875 0.28125 0  0.25 0.28125 0  0.28125 0.28125 0  0.3125 0.28125 0  0.34375 0.28125 0  0.375 0.28125 0  0.40625 0.28125 0  0.4375 0.28125 0  0.46875 0.28125 0  0.5 0.28125 0  0.53125 0.28125 0  0.5625 0.28125 0  0.59375 0.28125 0  0.625 0.28125 0  0.65625 0.28125 0  0.6875 0.28125 0  0.71875 0.28125 0  0.75 0.28125 0  0.78125 0.28125 0  0.8125 0.28125 0  0.84375 0.28125 0  0.875 0.28125 0  0.90625 0.28125 0  0.9375 0.28125 0  0.96875 0.28125 0  1 0.28125 0  0 0.3125 0  0.03125 0.3125 0  0.0625 0.3125 0  0.09375 0.3125 0  0.125 0.3125 0  0.15625 0.3125 0  0.1875 0.3125 0  0.21875 0.3125 0  0.25 0.3125 0  0.28125 0.3125 0  0.3125 0.3125 0  0.34375 0.3125 0  0.375 0.3125 0  0.40625 0.3125 0  0.4375 0.3125 0  0.46875 0.3125 0  0.5 0.3125 0  0.53125 0.3125 0  0.5625 0.3125 0  0.59375 0.3125 0  0.625 0.3125 0  0.65625 0.3125 0  0.6875 0.3125 0  0.71875 0.3125 0  0.75 0.3125 0  0.78125 0.3125 0  0.8125 0.3125 0  0.84375 0.3125 0  0.875 0.3125 0  0.90625 0.3125 0  0.9375 0.3125 0  0.96875 0.3125 0  1 0.3125 0  0 0.34375 0  0.03125 0.34375 0  0.0625 0.34375 0  0.09375 0.34375 0  0.125 0.34375 0  0.15625 0.34375 0  0.1875 0.34375 0  0.21875 0.34375 0  0.25 0.34375 0  0.28125 0.34375 0  0.3125 0.34375 0  0.34375 0.34375 0  0.375 0.34375 0  0.40625 0.34375 0  0.4375 0.34375 0  0.46875 0.34375 0  0.5 0.34375 0  0.53125 0.34375 0  0.5625 0.34375 0  0.59375 0.34375 0  0.625 0.34375 0  0.65625 0.34375 0  0.6875 0.34375 0  0.71875 0.34375 0  0.75 0.34375 0  0.78125 0.34375 0  0.8125 0.34375 0  0.84375 0.34375 0  0.875 0.34375 0  0.90625 0.34375 0  0.9375 0.34375 0  0.96875 0.34375 0  1 0.34375 0  0 0.375 0  0.03125 0.375 0  0.0625 0.375 0  0.09375 0.375 0  0.125 0.375 0  0.15625 0.375 0  0.1875 0.375 0  0.21875 0.375 0  0.25 0.375 0  0.28125 0.375 0  0.3125 0.375 0  0.34375 0.375 0  0.375 0.375 0  0.40625 0.375 0  0.4375 0.375 0  0.46875 0.375 0  0.5 0.375 0  0.53125 0.375 0  0.5625 0.375 0  0.59375 0.375 0  0.625 0.375 0  0.65625 0.375 0  0.6875 0.375 0  0.71875 0.375 0  0.75 0.375 0  0.78125 0.375 0  0.8125 0.375 0  0.84375 0.375 0  0.875 0.375 0  0.90625 0.375 0  0.9375 0.375 0  0.96875 0.375 0  1 0.375 0  0 0.40625 0  0.03125 0.40625 0  0.0625 0.40625 0  0.09375 0.40625 0  0.125 0.40625 0  0.15625 0.40625 0  0.1875 0.40625 0  0.21875 0.40625 0  0.25 0.40625 0  0.28125 0.40625 0  0.3125 0.40625 0  0.34375 0.40625 0  0.375 0.40625 0  0.40625 0.40625 0  0.4375 0.40625 0  0.46875 0.40625 0  0.5 0.40625 0  0.53125 0.40625 0  0.5625 0.40625 0  0.59375 0.40625 0  0.625 0.40625 0  0.65625 0.40625 0  0.6875 0.40625 0  0.71875 0.40625 0  0.75 0.40625 0  0.78125 0.40625 0  0.8125 0.40625 0  0.84375 0.40625 0  0.875 0.40625 0  0.90625 0.40625 0  0.9375 0.40625 0  0.96875 0.40625 0  1 0.40625 0  0 0.4375 0  0.03125 0.4375 0  0.0625 0.4375 0  0.09375 0.4375 0  0.125 0.4375 0  0.15625 0.4375 0  0.1875 0.4375 0  0.21875 0.4375 0  0.25 0.4375 0  0.28125 0.4375 0  0.3125 0.4375 0  0.34375 0.4375 0  0.375 0.4375 0  0.40625 0.4375 0  0.4375 0.4375 0  0.46875 0.4375 0  0.5 0.4375 0  0.53125 0.4375 0  0.5625 0.4375 0  0.59375 0.4375 0  0.625 0.4375 0  0.65625 0.4375 0  0.6875 0.4375 0  0.71875 0.4375 0  0.75 0.4375 0  0.78125 0.4375 0  0.8125 0.4375 0  0.84375 0.4375 0  0.875 0.4375 0  0.90625 0.4375 0  0.9375 0.4375 0  0.96875 0.4375 0  1 0.4375 0  0 0.46875 0  0.03125 0.46875 0  0.0625 0.46875 0  0.09375 0.46875 0  0.125 0.46875 0  0.15625 0.46875 0  0.1875 0.46875 0  0.21875 0.46875 0  0.25 0.46875 0  0.28125 0.46875 0  0.3125 0.46875 0  0.34375 0.46875 0  0.375 0.46875 0  0.40625 0.46875 0  0.4375 0.46875 0  0.46875 0.46875 0  0.5 0.46875 0  0.53125 0.46875 0  0.5625 0.46875 0  0.59375 0.46875 0  0.625 0.46875 0  0.65625 0.46875 0  0.6875 0.46875 0  0.71875 0.46875 0  0.75 0.46875 0  0.78125 0.46875 0  0.8125 0.46875 0  0.84375 0.46875 0  0.875 0.46875 0  0.90625 0.46875 0  0.9375 0.46875 0  0.96875 0.46875 0  1 0.46875 0  0 0.5 0  0.03125 0.5 0  0.0625 0.5 0  0.09375 0.5 0  0.125 0.5 0  0.15625 0.5 0  0.1875 0.5 0  0.21875 0.5 0  0.25 0.5 0  0.28125 0.5 0  0.3125 0.5 0  0.34375 0.5 0  0.375 0.5 0  0.40625 0.5 0  0.4375 0.5 0  0.46875 0.5 0  0.5 0.5 0  0.53125 0.5 0  0.5625 0.5 0  0.59375 0.5 0  0.625 0.5 0  0.65625 0.5 0  0.6875 0.5 0  0.71875 0.5 0  0.75 0.5 0  0.78125 0.5 0  0.8125 0.5 0  0.84375 0.5 0  0.875 0.5 0  0.90625 0.5 0  0.9375 0.5 0  0.96875 0.5 0  1 0.5 0  0 0.53125 0  0.03125 0.53125 0  0.0625 0.53125 0  0.09375 0.53125 0  0.125 0.53125 0  0.15625 0.53125 0  0.1875 0.53125 0  0.21875 0.53125 0  0.25 0.53125 0  0.28125 0.53125 0  0.3125 0.53125 0  0.34375 0.53125 0  0.375 0.53125 0  0.40625 0.53125 0  0.4375 0.53125 0  0.46875 0.53125 0  0.5 0.53125 0  0.53125 0.53125 0  0.5625 0.53125 0  0.59375 0.53125 0  0.625 0.53125 0  0.65625 0.53125 0  0.6875 0.53125 0  0.71875 0.53125 0  0.75 0.53125 0  0.78125 0.531
[...]
<PointData  Scalars="theta_dt"> 
<DataArray  type="Float64"  Name="theta_dt"  format="ascii">-1.4307710224875422e-04  -2.7456095591021294e-04  -1.6324910859045601e-04  -1.1862555398851363e-04  -1.9193848102488838e-04  -4.0357400188166452e-05  -5.2657590982826106e-05  -4.7710851357781611e-05  -2.7672142461547311e-04  -2.2956101907065180e-04  -4.2716261565728061e-04  -4.0867827312288801e-04  -3.5944454327809303e-04  -3.1730856717637702e-04  -2.6020028316112750e-04  -2.2877952534619263e-04  -2.6715589040621879e-04  -2.4223552763213621e-04  -4.1155621036258994e-05  -5.2417252507192222e-05  -3.0383193456066539e-05  -6.3338952396694748e-05  -3.7812239218398857e-05  -6.3049862315224189e-05  -3.5081983692358972e-05  -5.6602184354617155e-05  -3.3710879437672046e-04  -2.8451928782093273e-04  -1.9753024850263558e-04  -2.5796427229739650e-04  -3.2803170745908221e-04  -3.3224565686340861e-04  -3.0544024669024958e-04  -2.1837103538455043e-05  -1.5491882859710039e-04  -2.8083264166407589e-04  -1.5207297584390146e-04  -1.1999203938000995e-04  -1.9988762981671602e-04  -4.1284849495052955e-05  -5.3860427205860371e-05  -4.4594736975355471e-05  -2.6979287918986564e-04  -2.1162729043313678e-04  -4.2331102554392505e-04  -3.9538800814833578e-04  -3.8073391718664154e-04  -3.4260656473662977e-04  -2.8604114083521953e-04  -2.1185742861966629e-04  -2.5846794977781311e-04  -2.5699392167609071e-04  -3.7971000088125185e-05  -5.2648876336455301e-05  -3.3042768842759944e-05  -6.4785778672827183e-05  -3.7113712888884909e-05  -6.3328470022523588e-05  -3.3601344480867387e-05  -6.0050717889807702e-05  -3.4480923530862682e-04  -2.6347429744523118e-04  -1.9980566210351652e-04  -2.7853093896285889e-04  -3.3557017074713381e-04  -3.2144098945934756e-04  -4.1279307029601947e-05  -2.2496258500835750e-05  -1.6727001149380506e-04  -2.8283926234980671e-04  -1.4565471817018453e-04  -1.2483957097322469e-04  -2.0406253271236516e-04  -4.1467280936481179e-05  -5.4245273663640943e-05  -4.1110914178196499e-05  -2.5891458349123705e-04  -1.9325668321272144e-04  -4.1271217265887177e-04  -3.7570631844532524e-04  -3.9972063671809465e-04  -3.6676598220874019e-04  -3.1464644199844600e-04  -1.9546390598018188e-04  -2.4560188939949288e-04  -2.6763734716893730e-04  -3.5144758369480049e-05  -5.1897951630958464e-05  -3.6324292892043694e-05  -6.5248689546918434e-05  -3.7541237522335776e-05  -6.2425223533513544e-05  -3.3349434194446201e-05  -6.2537723564820054e-05  -3.4727298503551543e-04  -2.4308666275980951e-04  -2.0787756641112298e-04  -2.9817196726152962e-04  -3.3705300405519870e-04  -2.9893063008576556e-05  -3.9614887607373754e-05  -2.3930395223226782e-05  -1.7906530806481496e-04  -2.8028899023655271e-04  -1.4456274038358912e-04  -1.3275812612807784e-04  -3.3783918053930421e-05  -4.0875838005657960e-05  -5.3756161199017518e-05  -3.7542222941380520e-05  -2.4488558766915918e-04  -1.7595889272226982e-04  -3.9607124030332613e-04  -3.5116800422207870e-04  -4.1466016814496894e-04  -3.8768007079164777e-04  -3.4363132582509949e-04  -1.8091521765781955e-04  -2.2956101907065172e-04  -2.7322728756046623e-04  -3.2905577652491051e-05  -5.0210224207767222e-05  -3.9956872928202685e-05  -6.4660362763729342e-05  -3.9057857590451827e-05  -6.0395148003644144e-05  -3.4356089907881251e-05  -6.3843902058394037e-05  -3.4414173443733258e-04  -2.2499333717071417e-04  -2.2106320909036746e-04  -3.1517462083014325e-04  -1.3298102884854614e-04  -2.9466701781175193e-05  -3.7468399428755046e-05  -2.6025128623175965e-05  -1.8927614521072511e-04  -2.7327112017517142e-04  -1.4892637988968914e-04  -1.4307710224875422e-04  -3.5951499967885569e-05  -3.9546550999522671e-05  -5.2410215523538098e-05  -3.4181938079868000e-05  -2.2877952534619255e-04  -1.6117124635623944e-04  -3.7461056512413672e-04  -3.2373411444674966e-04  -4.2413208399195350e-04  -4.0349491096295612e-04  -3.7055667000711036e-04  -1.6938855235739628e-04  -2.1162729043313667e-04  -4.2893705196318059e-05  -3.1435654546934475e-05  -4.7710851357781604e-05  -4.3637656071798589e-05  -6.3041397910294824e-05  -4.1535291605558563e-05  -5.7388788331427786e-05  -3.6546291010559284e-05  -2.7460134379860284e-04  -3.3552512065974081e-04  -2.1065831922160348e-04  -2.3824593109988789e-04  -9.3238773472084115e-05  -2.4354256374071960e-05  -2.8508441212035090e-05  -3.5004112403596866e-05  -2.8609720909284180e-05  -1.9699738808667803e-04  -2.6225257861808013e-04  -1.5842043821608261e-04  -1.5491882859710037e-04  -3.8080854661684185e-05  -3.7577996239245575e-05  -5.0296987688148717e-05  -3.1309276149513251e-05  -2.1185742861966640e-04  -1.5013736531543188e-04  -3.4997252428980855e-04  -2.9563191530136495e-04  -4.2716261565728050e-04  -4.1276758645146619e-04  -3.9313313269628960e-04  -1.6182180639242845e-04  -1.9325668321272150e-04  -4.5645772598850917e-05  -3.0854926379535832e-05  -4.4594736975355457e-05  -4.7056898791327081e-05  -6.0499511075541003e-05  -4.4763731888224225e-05  -5.3640583811484685e-05  -3.9745349601525538e-05  -2.9221981260424775e-04  -3.2199644085242126e-04  -2.0124801395142385e-04  -1.0010865988816563e-04  -1.0095564796254066e-04  -2.5916829594856939e-05  -2.7089343307474250e-05  -3.2414969100569579e-05  -3.1470811731451568e-05  -2.0152456501550808e-04  -2.4804271728021257e-04  -1.7228768027666180e-04  -1.6727001149380489e-04  -3.9979898782371199e-05  -3.5123683829983371e-05  -4.7571701917739334e-05  -2.9165824160912625e-05  -1.9546390598018196e-04  -1.4380080030971696e-04  -3.2408616536543837e-04  -2.6917084369358450e-04  -4.2331102554392478e-04  -4.1459154334345423e-04  -4.0941477538780852e-04  -1.5883238299960219e-04  -1.7595889272226976e-04  -4.8349304863770324e-05  -3.1210354065525069e-05  -4.1110914178196499e-05  -4.9923878138401021e-05  -5.7221413037678786e-05  -4.8468586508703425e-05  -4.9450082837375559e-05  -4.3692516413884644e-05  -3.0952756416247561e-04  -3.0454942546019826e-04  -7.8194976011988356e-05  -1.0933055942235696e-04  -1.0900451899863381e-04  -2.7451845457768989e-05  -2.5320070911601733e-05  -2.9906699585213769e-05  -3.4369868260338399e-05  -2.0241507127455075e-04  -2.3172901135207799e-04  -1.8939781317483306e-04  -1.7906530806481490e-04  -4.1474144761779363e-05  -3.2379757107986496e-05  -4.4442923277928787e-05  -2.7934877152134415e-05  -1.8091521765781977e-04  -1.4272272140087311e-04  -2.9900838582436781e-04  -2.4654963264249334e-04  -4.1271217265887182e-04  -4.0867827312288796e-04  -4.1796591450960104e-04  -1.6066202361048211e-04  -1.6117124635623933e-04  -5.0760423625588203e-05  -3.2471214187161240e-05  -3.7542222941380513e-05  -5.1991479869268959e-05  -5.3457975371276862e-05  -5.2332831947007534e-05  -4.5157498232794839e-05  -4.8061949380586407e-05  -3.2496331281190772e-04  -2.0624264974331238e-05  -8.1353957379480169e-05  -1.1789719092776596e-04  -1.1669113668752400e-04  -2.8820834315338911e-05  -2.3342020445326582e-05  -2.7680696534502662e-05  -3.7062930454764172e-05  -1.9952804901763463e-04  -2.1458875048953655e-04  -2.0833838049918047e-04  -1.8927614521072498e-04  -4.2421522009916385e-05  -2.9568986349140509e-05  -4.1155621036259001e-05  -2.7725448541069697e-05  -1.6938855235739631e-04  -1.4703081976612557e-04  -2.7675271775451751e-04  -2.2967069561907944e-04  -3.9607124030332608e-04  -3.9538800814833573e-04  -2.2080459140334246e-04  -1.6715257281112652e-04  -1.5013736531543177e-04  -5.2657590982826086e-05  -3.4530858404788599e-05  -3.4181938079868000e-05  -5.3077386886398142e-05  -4.9503858285545009e-05  -5.6023160343013107e-05  -4.1115594322832601e-05  -5.2489363243685726e-05  -1.8436557799614150e-05  -2.2686777063110770e-05  -8.6514226623862043e-05  -1.2508017196029918e-04  -1.2334521282300948e-04  -2.9898011024397345e-05  -2.1315783240973796e-05  -2.5917074168366042e-05  -3.9321019255453072e-05  -1.9303937365685179e-04  -1.9798387823063488e-04  -2.2753028274046389e-04  -1.9699738808667800e-04  -4.2724634579313175e-05  -2.6922360512560967e-05  -3.7971000088125185e-05  -2.8562343734513941e-05  -1.6182180639242851e-04  -1.5640403611416964e-04  -2.5911995037409500e-04  -2.1997741713613477e-04  -3.7461056512413672e-04  -3.7570631844532524e-04  -2.3497145144841191e-04  -1.7775503528966524e-04  -1.4380080030971685e-04  -5.3860427205860330e-05  -3.7214860610135456e-05  -3.1309276149513251e-05  -5.1594505195528749e-05  -4.5673250943459224e-05  -5.9217767790116518e-05  -3.7660225517262330e-05  -1.6124437812677286e-05  -1.9605985879699356e-05  -2.4776657989139795e-05  -9.3238773472084115e-05  -1.3026037809984282e-04  -1.2837689996315213e-04  -3.0580959294259333e-05  -1.9407875340907050e-05  -2.4759334087008724e-05  -4.0949502668674355e-05  -1.8343022776856212e-04  -1.8324762437964476e-04  -2.4535849196995489e-04  -2.0152456501550803e-04  -4.2339400071164140e-05  -2.4659795998547365e-05  -3.5144758369480042e-05  -3.0383193456066545e-05  -1.5883238299960217e-04  -1.7009477357500424e-04  -2.4754481845609558e-04  -2.1832823984834778e-04  -3.4997252428980850e-04  -3.5116800422207859e-04  -2.4888846641294175e-04  -1.9157151506367509e-04  -1.4272272140087301e-04  -5.4245273663640922e-05  -4.0294935538343636e-05  -2.9165824160912614e-05  -5.4904817402146242e-05  -4.2273718485979357e-05  -6.1633469817280211e-05  -1.5959489467068155e-05  -1.7106832134859945e-05  -2.1129912934226775e-05  -2.6718041075899203e-05  -1.0095564796254066e-04  -1.3298102884854614e-04  -1.3132711643735321e-04  -3.0799468030087709e-05  -1.7776830766704562e-05  -2.4301941266099206e-05  -4.1804784195718312e-05  -1.7144994331220225e-04  -1.7157235426877481e-04  -2.6030715512403237e-04  -2.0241507127455053e-04  -4.1279307029601927e-05  -2.2971571444291928e-05  -3.2905577652491051e-05  -3.3042768842759958e-05  -1.6066202361048225e-04  -1.8698712581098072e-04  -2.4297178662828955e-04  -2.2491849768499066e-04  -3.2408616536543821e-04  -3.2373411444674955e-04  -2.6130021985302078e-04  -2.0742686453516511e-04  -1.4703081976612551e-04  -5.3756161199017518e-05  -4.3507521917623284e-05  -2.7934877152134408e-05  -5.8156749331324451e-05  -3.9580329779928989e-05  -1.7393481404830778e-05  -1.6869547085940471e-05  -1.7815313067243629e-05  -2.2878722791281803e-05  -2.8345859183899855e-05  -1.0900451899863381e-04  -1.0746665167109700e-04  -1.3190743089758024e-04  -3.0521758974535748e-05  -1.6559818176699282e-05  -2.4581883037568943e-05  -1.6491011772136233e-04  -1.5805595869440442e-04  -1.6390805581828656e-04  -2.7108779846667710e-04  -1.9952804901763460e-04  -3.9614887607373740e-05  -2.2002053593526651e-05  -3.1435654546934468e-05  -3.6324292892043701e-05  -1.6715257281112652e-04  -2.0568661439451479e-04  -2.4577065572360679e-04  -2.3925705434156016e-04  -2.9900838582436786e-04  -2.9563191530136495e-04  -2.7106629767775997e-04  -2.2396434525822690e-04  -1.5640403611416956e-04  -5.2410215523538098e-05  -4.6575520296442622e-05  -2.7725448541069687e-05  -6.1056952960604965e-05  -4.7007117988710774e-05  -1.8043561581335366e-05  -1.7557715529527784e-05  -1.8187408139757770e-05  -2.4702770211450694e-05  -2.9519805393549172e-05  -1.1669113668752400e-04  -1.1436173027458332e-04  -1.3002605078859942e-04  -2.9757555791430640e-05  -1.5860909120056272e-05  -2.5574961038918242e-05  -1.7549077885221212e-04  -1.4433568693702218e-04  -1.6088009199029889e-04  -2.7674980584467958e-04  -1.9303937365685171e-04  -3.7468399428755033e-05  -2.1837103538455026e-05  -3.0854926379535846e-05  -3.9956872928202685e-05  -1.7775503528966538e-04  -2.2463423886170039e-04  -2.5569948954009229e-04  -2.6020028316112756e-04  -2.7675271775451745e-04  -2.6917084369358440e-04  -2.7725815635577941e-04  -2.3975752808915319e-04  -1.7009477357500413e-04  -5.0296987688148710e-05  -4.9231395171775053e-05  -2.8562343734513934e-05  -4.0185285012101697e-05  -4.2926598414099688e-05  -1.8455723418926053e-05  -1.7961207603408836e-05  -2.4354256374071990e-05  -2.6444723226025325e-05  -3.0136363412319674e-05  -1.2334521282300948e-04  -1.2113520808131303e-04  -1.2579758849387036e-04  -2.8557703919358838e-05  -1.5741999409118706e-05  -2.7197176959648419e-05  -1.8588484068554671e-04  -1.3141665908542713e-04  -1.6273332081069819e-04  -1.6491011772136208e-04  -1.8343022776856204e-04  -3.5004112403596839e-05  -2.2496258500835730e-05  -3.1210354065525089e-05  -4.3637656071798596e-05  -1.9157151506367528e-04  -2.4223552763213632e-04  -2.7191846958949712e-04  -2.8604114083521958e-04  -2.5911995037409494e-04  -2.4654963264249328e-04  -2.7923923643441428e-04  -2.5342921637027017e-04  -1.8698712581098064e-04  -4.7571701917739314e-05  -5.1239717767420107e-05  -1.6124437812677286e-05  -3.7624956830020778e-05  -3.9084375244940108e-05  -1.8587594259021752e-05  -1.8040575435263807e-05  -2.5916829594856953e-05  -2.7952680100239484e-05  -1.0746665167109700e-04  -1.2837689996315213e-04  -1.2717606789810880e-04  -1.1953561531537562e-04  -2.7010336816391503e-05  -1.6217173097334363e-05  -2.9311149397958334e-05  -1.9515468289273618e-04  -1.2037235748125749e-04  -1.6930754788421537e-04  -1.7549077885221202e-04  -1.7144994331220225e-04  -3.2414969100569552e-05  -2.3930395223226772e-05  -3.2471214187161240e-05  -4.7056898791327095e-05  -2.0742686453516538e-04  -2.5699392167609082e-04  -2.9305405108872597e-04  -3.1464644199844606e-04  -2.4754481845609553e-04  -2.2967069561907942e-04  -2.7672142461547300e-04  -2.6376748973947232e-04  -2.0568661439451471e-04  -4.4442923277928780e-05  -1.7783264838373853e-05  -1.7106832134859945e-05  -3.5944214617436324e-05  -3.5799710795092422e-05  -1.8419995804346711e-05  -1.7783264838373853e-05  -2.7451845457768992e-05  -2.9092968707910991e-05  -1.1436173027458332e-04  -1.3132711643735321e-04  -1.3192926472754878e-04  -1.1172844693552137e-04  -2.5233873888255244e-05  -1.7251018057437176e-05  -3.1737076430801430e-05  -2.0244857580283346e-04  -1.1213159305784360e-04  -1.8004670010656341e-04  -1.8588484068554663e-04  -1.5805595869440432e-04  -2.9906699585213762e-05  -2.6025128623175938e-05  -3.4530858404788606e-05  -4.9923878138401034e-05  -2.2396434525822706e-04  -2.6763734716893741e-04  -3.1730856717637713e-04  -3.4363132582509954e-04  -2.4297178662828966e-04  -2.1997741713613474e-04  -2.6979287918986531e-04  -2.6982910357974615e-04  -2.2463423886170031e-04  -1.3011079041166690e-05  -1.7204950997492076e-05  -1.7815313067243629e-05  -3.5280197335652018e-05  -3.3348840933757030e-05  -1.7958796322422757e-05  -1.7204950997492076e-05  -2.8820834315338918e-05  -2.9761551261237418e-05  -1.2113520808131303e-04  -1.3190743089758024e-04  -1.3494287198778819e-04  -1.0300001535534979e-04  -2.3367404176527934e-05  -1.8761076013896094e-05  -3.4267372064671636e-05  -2.0707302739152798e-04  -1.0739906610086264e-04  -1.9404130558339764e-04  -1.9515468289273624e-04  -1.4433568693702207e-04  -2.7680696534502635e-05  -2.8609720909284170e-05  -3.7214860610135456e-05  -5.1991479869268966e-05  -2.3975752808915314e-04  -2.7322728756046634e-04  -3.4260656473662988e-04  -3.7055667000711036e-04  -2.4577065572360673e-04  -2.1832823984834773e-04  -2.5891458349123716e-04  -2.7102143715749681e-04  -5.9543921308091724e-06  -1.2042643806240271e-05  -1.6348520099463676e-05  -1.8187408139757770e-05  -3.5686601121744704e-05  -3.1941349214436974e-05  -1.7234681225784988e-05  -1.6348520099463676e-05  -2.9898011024397352e-05  -2.9893063008576573e-05  -1.2717606789810880e-04  -1.3002605078859942e-04  -1.3590707314588065e-04  -9.4058952877456911e-05  -2.1559235013474401e-05  -2.0624264974331238e-05  -3.6683787371888298e-05  -2.0855261686431351e-04  -1.0659389208414305e-04  -2.1010106640382200e-04  -2.0244857580283346e-04  -1.3141665908542708e-04  -2.5917074168366011e-05  -3.1470811731451548e-05  -4.0294935538343643e-05  -5.3077386886398149e-05  -2.5342921637027023e-04  -3.3777297208425019e-04  -3.6676598220874025e-04  -3.9313313269628966e-04  -2.5569948954009219e-04  -2.2491849768499058e-04  -2.4488558766915902e-04  -4.2995721109944787e-06  -6.0787570500967727e-06  -1.1275369906986011e-05  -1.5280757584993009e-05  -4.9045600212064012e-05  -3.7128296148230966e-05  -3.1701883962269194e-05  -1.6300839386321483e-05  -1.5280757584993009e-05  -3.0580959294259346e-05  -2.9466701781175207e-05  -1.3192926472754878e-04  -1.2579758849387036e-04  -1.3468164208034060e-04  -8.5640035437822368e-05  -1.9954546981140725e-05  -2.2686777063110763e-05  -3.8775606176980133e-05  -2.0667216392253860e-04  -1.0981143844064616e-04  -2.2685175269189801e-04  -2.0707302739152790e-04  -1.2037235748125744e-04  -2.4759334087008690e-05  -3.4369868260338378e-05  -4.3507521917623305e-05  -2.2080459140334240e-04  -2.6376748973947232e-04  -3.5944454327809303e-04  -3.8768007079164788e-04  -4.0941477538780863e-04  -2.7191846958949702e-04  -2.3925705434156008e-04  -4.2620805124866050e-06  -3.9147310988329077e-06  -1.4697884895908530e-05  -1.0771688527342414e-05  -1.4086996723439371e-05  -5.2192374242507688e-05  -3.9483338372130846e-05  -3.2658808221649503e-05  -1.5228737358710676e-05  -1.4086996723439371e-05  -3.0799468030087723e-05  -2.8508441212035093e-05  -1.3494287198778819e-04  -1.1953561531537562e-04  -1.3130948585338511e-04  -7.8442817160098111e-05  -1.8683181380994121e-05  -2.4776657989139792e-05  -4.0357400188166480e-05  -2.0149751046758590e-04  -1.1681191882721636e-04  -2.4284854540302582e-04  -2.0855261686431351e-04  -1.1213159305784364e-04  -2.4301941266099182e-05  -3.7062930454764159e-05  -4.6575520296442615e-05  -2.3497145144841204e-04  -2.6982910357974626e-04  -3.8073391718664159e-04  -4.0349491096295612e-04  -4.1796591450960109e-04  -2.9305405108872597e-04  -5.7603282008277515e-06  -4.6148301160935944e-06  -3.5857357396781176e-06  -1.5640903684401574e-05  -1.0572697190008148e-05  -1.2864154985060903e-05  -5.5283652135587318e-05  -4.2552285168152548e-05  -3.4740807598499383e-05  -1.4102315900247555e-05  -1.2864154985060903e-05  -3.0521758974535748e-05  -2.7089343307474260e-05  -1.3590707314588065e-04  -1.1172844693552137e-04  -1.2601496726031747e-04  -7.3072574436174200e-05  -1.7848586094831480e-05  -2.6718041075899196e-05  -4.1284849495052975e-05  -1.9337294651324477e-04  -1.2703698304354099e-04  -2.5669649269683607e-04  -2.0667216392253860e-04  -1.0739906610086258e-04  -2.4581883037568943e-05  -3.9321019255453045e-05  -4.9231395171775060e-05  -2.4888846641294186e-04  -2.7102143715749692e-04  -3.9972063671809475e-04  -4.1276758645146619e-04  -3.3777297208425008e-04  -5.9543921308091724e-06  -5.4482112888580360e-06  -4.9827557666891670e-06  -3.3402541014215610e-06  -1.6567291504252881e-05  -1.0694487443230134e-05  -1.1712725424804251e-05  -5.8040578036828350e-05  -4.6074110173959406e-05  -3.7781824236083021e-05  -1.3011079041166690e-05  -1.1712725424804251e-05  -2.9757555791430650e-05  -2.5320070911601737e-05  -1.3468164208034060e-04  -1.0300001535534979e-04  -1.1918698783414458e-04  -6.9988537913507406e-05  -1.7518859329383250e-05  -2.8345859183899849e-05  -4.1467280936481199e-05  -1.8289525065634451e-04  -1.3965320527932292e-04  -2.6716804981414188e-04  -2.0149751046758582e-04  -1.0659389208414298e-04  -2.5574961038918231e-05  -4.0949502668674328e-05  -5.1239717767420121e-05  -2.6130021985302089e-04  -2.6715589040621896e-04  -4.1466016814496894e-04  -4.1459154334345428e-04  -3.1992782876739601e-06  -6.0787570500967727e-06  -5.0898838290747056e-06  -5.3341222877059083e-06  -3.1992782876739601e-06  -1.7393481404830778e-05  -1.1126531652347345e-05  -1.0728383918189970e-05  -6.0209840666685189e-05  -4.9747451669727346e-05  -4.1533990570766089e-05  -1.2042643806240271e-05  -1.0728383918189970e-05  -2.8557703919358838e-05  -2.3342020445326585e-05  -1.3130948585338511e-04  -9.4058952877456911e-05  -1.1134809019866254e-04  -6.9463831747596994e-05  -1.7720664628025738e-05  -2.9519805393549165e-05  -4.0875838005657987e-05  -1.7086627690707931e-04  -1.5361910537243660e-04  -2.7330781157944458e-04  -1.9337294651324466e-04  -1.0981143844064610e-04  -2.7197176959648416e-05  -4.1804784195718285e-05  -5.2417252507192235e-05  -2.7106629767776019e-04  -2.5846794977781322e-04  -4.2413208399195350e-04  -5.9436806871725477e-06  -3.1752932024864349e-06  -4.9124576050617430e-06  -4.7134012467629854e-06  -5.6382