<?xml version="1.0"?>
<VTKFile type="UnstructuredGrid"  version="0.1"  >
<UnstructuredGrid>
<Piece  NumberOfPoints="1089" NumberOfCells="2048">
<Points>
<DataArray  type="Float64"  NumberOfComponents="3"  format="ascii">0 0 0  0.03125 0 0  0.0625 0 0  0.09375 0 0  0.125 0 0  0.15625 0 0  0.1875 0 0  0.21875 0 0  0.25 0 0  0.28125 0 0  0.3125 0 0  0.34375 0 0  0.375 0 0  0.40625 0 0  0.4375 0 0  0.46875 0 0  0.5 0 0  0.53125 0 0  0.5625 0 0  0.59375 0 0  0.625 0 0  0.65625 0 0  0.6875 0 0  0.71875 0 0  0.75 0 0  0.78125 0 0  0.8125 0 0  0.84375 0 0  0.875 0 0  0.90625 0 0  0.9375 0 0  0.96875 0 0  1 0 0  0 0.03125 0  0.03125 0.03125 0  0.0625 0.03125 0  0.09375 0.03125 0  0.125 0.03125 0  0.15625 0.03125 0  0.1875 0.03125 0  0.21875 0.03125 0  0.25 0.03125 0  0.28125 0.03125 0  0.3125 0.03125 0  0.34375 0.03125 0  0.375 0.03125 0  0.40625 0.03125 0  0.4375 0.03125 0  0.46875 0.03125 0  0.5 0.03125 0  0.53125 0.03125 0  0.5625 0.03125 0  0.59375 0.03125 0  0.625 0.03125 0  0.65625 0.03125 0  0.6875 0.03125 0  0.71875 0.03125 0  0.75 0.03125 0  0.78125 0.03125 0  0.8125 0.03125 0  0.84375 0.03125 0  0.875 0.03125 0  0.90625 0.03125 0  0.9375 0.03125 0  0.96875 0.03125 0  1 0.03125 0  0 0.0625 0  0.03125 0.0625 0  0.0625 0.0625 0  0.09375 0.0625 0  0.125 0.0625 0  0.15625 0.0625 0  0.1875 0.0625 0  0.21875 0.0625 0  0.25 0.0625 0  0.28125 0.0625 0  0.3125 0.0625 0  0.34375 0.0625 0  0.375 0.0625 0  0.40625 0.0625 0  0.4375 0.0625 0  0.46875 0.0625 0  0.5 0.0625 0  0.53125 0.0625 0  0.5625 0.0625 0  0.59375 0.0625 0  0.625 0.0625 0  0.65625 0.0625 0  0.6875 0.0625 0  0.71875 0.0625 0  0.75 0.0625 0  0.78125 0.0625 0  0.8125 0.0625 0  0.84375 0.0625 0  0.875 0.0625 0  0.90625 0.0625 0  0.9375 0.0625 0  0.96875 0.0625 0  1 0.0625 0  0 0.09375 0  0.03125 0.09375 0  0.0625 0.09375 0  0.09375 0.09375 0  0.125 0.09375 0  0.15625 0.09375 0  0.1875 0.09375 0  0.21875 0.09375 0  0.25 0.09375 0  0.28125 0.09375 0  0.3125 0.09375 0  0.34375 0.09375 0  0.375 0.09375 0  0.40625 0.09375 0  0.4375 0.09375 0  0.46875 0.09375 0  0.5 0.09375 0  0.53125 0.09375 0  0.5625 0.09375 0  0.59375 0.09375 0  0.625 0.09375 0  0.65625 0.09375 0  0.6875 0.09375 0  0.71875 0.09375 0  0.75 0.09375 0  0.78125 0.09375 0  0.8125 0.09375 0  0.84375 0.09375 0  0.875 0.09375 0  0.90625 0.09375 0  0.9375 0.09375 0  0.96875 0.09375 0  1 0.09375 0  0 0.125 0  0.03125 0.125 0  0.0625 0.125 0  0.09375 0.125 0  0.125 0.125 0  0.15625 0.125 0  0.1875 0.125 0  0.21875 0.125 0  0.25 0.125 0  0.28125 0.125 0  0.3125 0.125 0  0.34375 0.125 0  0.375 0.125 0  0.40625 0.125 0  0.4375 0.125 0  0.46875 0.125 0  0.5 0.125 0  0.53125 0.125 0  0.5625 0.125 0  0.59375 0.125 0  0.625 0.125 0  0.65625 0.125 0  0.6875 0.125 0  0.71875 0.125 0  0.75 0.125 0  0.78125 0.125 0  0.8125 0.125 0  0.84375 0.125 0  0.875 0.125 0  0.90625 0.125 0  0.9375 0.125 0  0.96875 0.125 0  1 0.125 0  0 0.15625 0  0.03125 0.15625 0  0.0625 0.15625 0  0.09375 0.15625 0  0.125 0.15625 0  0.15625 0.15625 0  0.1875 0.15625 0  0.21875 0.15625 0  0.25 0.15625 0  0.28125 0.15625 0  0.3125 0.15625 0  0.34375 0.15625 0  0.375 0.15625 0  0.40625 0.15625 0  0.4375 0.15625 0  0.46875 0.15625 0  0.5 0.15625 0  0.53125 0.15625 0  0.5625 0.15625 0  0.59375 0.15625 0  0.625 0.15625 0  0.65625 0.15625 0  0.6875 0.15625 0  0.71875 0.15625 0  0.75 0.15625 0  0.78125 0.15625 0  0.8125 0.15625 0  0.84375 0.15625 0  0.875 0.15625 0  0.90625 0.15625 0  0.9375 0.15625 0  0.96875 0.15625 0  1 0.15625 0  0 0.1875 0  0.03125 0.1875 0  0.0625 0.1875 0  0.09375 0.1875 0  0.125 0.1875 0  0.15625 0.1875 0  0.1875 0.1875 0  0.21875 0.1875 0  0.25 0.1875 0  0.28125 0.1875 0  0.3125 0.1875 0  0.34375 0.1875 0  0.375 0.1875 0  0.40625 0.1875 0  0.4375 0.1875 0  0.46875 0.1875 0  0.5 0.1875 0  0.53125 0.1875 0  0.5625 0.1875 0  0.59375 0.1875 0  0.625 0.1875 0  0.65625 0.1875 0  0.6875 0.1875 0  0.71875 0.1875 0  0.75 0.1875 0  0.78125 0.1875 0  0.8125 0.1875 0  0.84375 0.1875 0  0.875 0.1875 0  0.90625 0.1875 0  0.9375 0.1875 0  0.96875 0.1875 0  1 0.1875 0  0 0.21875 0  0.03125 0.21875 0  0.0625 0.21875 0  0.09375 0.21875 0  0.125 0.21875 0  0.15625 0.21875 0  0.1875 0.21875 0  0.21875 0.21875 0  0.25 0.21875 0  0.28125 0.21875 0  0.3125 0.21875 0  0.34375 0.21875 0  0.375 0.21875 0  0.40625 0.21875 0  0.4375 0.21875 0  0.46875 0.21875 0  0.5 0.21875 0  0.53125 0.21875 0  0.5625 0.21875 0  0.59375 0.21875 0  0.625 0.21875 0  0.65625 0.21875 0  0.6875 0.21875 0  0.71875 0.21875 0  0.75 0.21875 0  0.78125 0.21875 0  0.8125 0.21875 0  0.84375 0.21875 0  0.875 0.21875 0  0.90625 0.21875 0  0.9375 0.21875 0  0.96875 0.21875 0  1 0.21875 0  0 0.25 0  0.03125 0.25 0  0.0625 0.25 0  0.09375 0.25 0  0.125 0.25 0  0.15625 0.25 0  0.1875 0.25 0  0.21875 0.25 0  0.25 0.25 0  0.28125 0.25 0  0.3125 0.25 0  0.34375 0.25 0  0.375 0.25 0  0.40625 0.25 0  0.4375 0.25 0  0.46875 0.25 0  0.5 0.25 0  0.53125 0.25 0  0.5625 0.25 0  0.59375 0.25 0  0.625 0.25 0  0.65625 0.25 0  0.6875 0.25 0  0.71875 0.25 0  0.75 0.25 0  0.78125 0.25 0  0.8125 0.25 0  0.84375 0.25 0  0.875 0.25 0  0.90625 0.25 0  0.9375 0.25 0  0.96875 0.25 0  1 0.25 0  0 0.28125 0  0.03125 0.28125 0  0.0625 0.28125 0  0.09375 0.28125 0  0.125 0.28125 0  0.15625 0.28125 0  0.1875 0.28125 0  0.21875 0.28125 0  0.25 0.28125 0  0.28125 0.28125 0  0.3125 0.28125 0  0.34375 0.28125 0  0.375 0.28125 0  0.40625 0.28125 0  0.4375 0.28125 0  0.46875 0.28125 0  0.5 0.28125 0  0.53125 0.28125 0  0.5625 0.28125 0  0.59375 0.28125 0  0.625 0.28125 0  0.65625 0.28125 0  0.6875 0.28125 0  0.71875 0.28125 0  0.75 0.28125 0  0.78125 0.28125 0  0.8125 0.28125 0  0.84375 0.28125 0  0.875 0.28125 0  0.90625 0.28125 0  0.9375 0.28125 0  0.96875 0.28125 0  1 0.28125 0  0 0.3125 0  0.03125 0.3125 0  0.0625 0.3125 0  0.09375 0.3125 0  0.125 0.3125 0  0.15625 0.3125 0  0.1875 0.3125 0  0.21875 0.3125 0  0.25 0.3125 0  0.28125 0.3125 0  0.3125 0.3125 0  0.34375 0.3125 0  0.375 0.3125 0  0.40625 0.3125 0  0.4375 0.3125 0  0.46875 0.3125 0  0.5 0.3125 0  0.53125 0.3125 0  0.5625 0.3125 0  0.59375 0.3125 0  0.625 0.3125 0  0.65625 0.3125 0  0.6875 0.3125 0  0.71875 0.3125 0  0.75 0.3125 0  0.78125 0.3125 0  0.8125 0.3125 0  0.84375 0.3125 0  0.875 0.3125 0  0.90625 0.3125 0  0.9375 0.3125 0  0.96875 0.3125 0  1 0.3125 0  0 0.34375 0  0.03125 0.34375 0  0.0625 0.34375 0  0.09375 0.34375 0  0.125 0.34375 0  0.15625 0.34375 0  0.1875 0.34375 0  0.21875 0.34375 0  0.25 0.34375 0  0.28125 0.34375 0  0.3125 0.34375 0  0.34375 0.34375 0  0.375 0.34375 0  0.40625 0.34375 0  0.4375 0.34375 0  0.46875 0.34375 0  0.5 0.34375 0  0.53125 0.34375 0  0.5625 0.34375 0  0.59375 0.34375 0  0.625 0.34375 0  0.65625 0.34375 0  0.6875 0.34375 0  0.71875 0.34375 0  0.75 0.34375 0  0.78125 0.34375 0  0.8125 0.34375 0  0.84375 0.34375 0  0.875 0.34375 0  0.90625 0.34375 0  0.9375 0.34375 0  0.96875 0.34375 0  1 0.34375 0  0 0.375 0  0.03125 0.375 0  0.0625 0.375 0  0.09375 0.375 0  0.125 0.375 0  0.15625 0.375 0  0.1875 0.375 0  0.21875 0.375 0  0.25 0.375 0  0.28125 0.375 0  0.3125 0.375 0  0.34375 0.375 0  0.375 0.375 0  0.40625 0.375 0  0.4375 0.375 0  0.46875 0.375 0  0.5 0.375 0  0.53125 0.375 0  0.5625 0.375 0  0.59375 0.375 0  0.625 0.375 0  0.65625 0.375 0  0.6875 0.375 0  0.71875 0.375 0  0.75 0.375 0  0.78125 0.375 0  0.8125 0.375 0  0.84375 0.375 0  0.875 0.375 0  0.90625 0.375 0  0.9375 0.375 0  0.96875 0.375 0  1 0.375 0  0 0.40625 0  0.03125 0.40625 0  0.0625 0.40625 0  0.09375 0.40625 0  0.125 0.40625 0  0.15625 0.40625 0  0.1875 0.40625 0  0.21875 0.40625 0  0.25 0.40625 0  0.28125 0.40625 0  0.3125 0.40625 0  0.34375 0.40625 0  0.375 0.40625 0  0.40625 0.40625 0  0.4375 0.40625 0  0.46875 0.40625 0  0.5 0.40625 0  0.53125 0.40625 0  0.5625 0.40625 0  0.59375 0.40625 0  0.625 0.40625 0  0.65625 0.40625 0  0.6875 0.40625 0  0.71875 0.40625 0  0.75 0.40625 0  0.78125 0.40625 0  0.8125 0.40625 0  0.84375 0.40625 0  0.875 0.40625 0  0.90625 0.40625 0  0.9375 0.40625 0  0.96875 0.40625 0  1 0.40625 0  0 0.4375 0  0.03125 0.4375 0  0.0625 0.4375 0  0.09375 0.4375 0  0.125 0.4375 0  0.15625 0.4375 0  0.1875 0.4375 0  0.21875 0.4375 0  0.25 0.4375 0  0.28125 0.4375 0  0.3125 0.4375 0  0.34375 0.4375 0  0.375 0.4375 0  0.40625 0.4375 0  0.4375 0.4375 0  0.46875 0.4375 0  0.5 0.4375 0  0.53125 0.4375 0  0.5625 0.4375 0  0.59375 0.4375 0  0.625 0.4375 0  0.65625 0.4375 0  0.6875 0.4375 0  0.71875 0.4375 0  0.75 0.4375 0  0.78125 0.4375 0  0.8125 0.4375 0  0.84375 0.4375 0  0.875 0.4375 0  0.90625 0.4375 0  0.9375 0.4375 0  0.96875 0.4375 0  1 0.4375 0  0 0.46875 0  0.03125 0.46875 0  0.0625 0.46875 0  0.09375 0.46875 0  0.125 0.46875 0  0.15625 0.46875 0  0.1875 0.46875 0  0.21875 0.46875 0  0.25 0.46875 0  0.28125 0.46875 0  0.3125 0.46875 0  0.34375 0.46875 0  0.375 0.46875 0  0.40625 0.46875 0  0.4375 0.46875 0  0.46875 0.46875 0  0.5 0.46875 0  0.53125 0.46875 0  0.5625 0.46875 0  0.59375 0.46875 0  0.625 0.46875 0  0.65625 0.46875 0  0.6875 0.46875 0  0.71875 0.46875 0  0.75 0.46875 0  0.78125 0.46875 0  0.8125 0.46875 0  0.84375 0.46875 0  0.875 0.46875 0  0.90625 0.46875 0  0.9375 0.46875 0  0.96875 0.46875 0  1 0.46875 0  0 0.5 0  0.03125 0.5 0  0.0625 0.5 0  0.09375 0.5 0  0.125 0.5 0  0.15625 0.5 0  0.1875 0.5 0  0.21875 0.5 0  0.25 0.5 0  0.28125 0.5 0  0.3125 0.5 0  0.34375 0.5 0  0.375 0.5 0  0.40625 0.5 0  0.4375 0.5 0  0.46875 0.5 0  0.5 0.5 0  0.53125 0.5 0  0.5625 0.5 0  0.59375 0.5 0  0.625 0.5 0  0.65625 0.5 0  0.6875 0.5 0  0.71875 0.5 0  0.75 0.5 0  0.78125 0.5 0  0.8125 0.5 0  0.84375 0.5 0  0.875 0.5 0  0.90625 0.5 0  0.9375 0.5 0  0.96875 0.5 0  1 0.5 0  0 0.53125 0  0.03125 0.53125 0  0.0625 0.53125 0  0.09375 0.53125 0  0.125 0.53125 0  0.15625 0.53125 0  0.1875 0.53125 0  0.21875 0.53125 0  0.25 0.53125 0  0.28125 0.53125 0  0.3125 0.53125 0  0.34375 0.53125 0  0.375 0.53125 0  0.40625 0.53125 0  0.4375 0.53125 0  0.46875 0.53125 0  0.5 0.53125 0  0.53125 0.53125 0  0.5625 0.53125 0  0.59375 0.53125 0  0.625 0.53125 0  0.65625 0.53125 0  0.6875 0.53125 0  0.71875 0.53125 0  0.75 0.53125 0  0.78125 0.531
[...]
<PointData  Scalars="theta_dt"> 
<DataArray  type="Float64"  Name="theta_dt"  format="ascii">2.1489724893618362e-01  1.5977773339065920e-01  1.0070012888534846e-01  3.8250998446477341e-01  2.3707934932484162e-01  9.4665220082675056e-02  1.9681875477025448e-02  2.3883532685705061e-01  3.8288316475031176e-01  3.4829363214940545e-01  1.8779984849009751e-01  1.7372579218512887e-02  2.8412599852144643e-02  2.0946614410833891e-01  5.0245127141494961e-01  3.8564072008524292e-01  5.9727284299808314e-01  2.8186167172703658e-01  1.9691294193338418e-01  1.1828854312258760e-01  2.1932333523089154e-02  2.1802011899549740e-02  1.1908881954759908e-01  2.0189018650861162e-01  2.9513239311627576e-01  4.7617427425648251e-01  3.7983096896037966e-01  6.4996374410029245e-01  4.2583874457348525e-01  6.5953076110303399e-01  4.2392169500474958e-01  4.1515018065118064e-01  4.8027261284272371e-01  2.8671341047365362e-01  2.3370815618216609e-01  1.6311489098467621e-01  1.0951485682392387e-01  4.0581471243618406e-01  2.2707338774856614e-01  1.0070012888534334e-01  2.1636510332845596e-02  2.6271985071685211e-01  4.2117307020248385e-01  3.8288316475030554e-01  1.9977209085960596e-01  1.6639367487350822e-02  3.0143660314373585e-02  2.2780164271290998e-01  5.1294559399947515e-01  4.1939755900108977e-01  6.3366217058716012e-01  2.6996566701318370e-01  2.0946614410832495e-01  1.3003594543196018e-01  2.4125657895269985e-02  2.3982303568537807e-02  1.3091569843919296e-01  2.1476068807897816e-01  2.8267629605912803e-01  5.0518557429890842e-01  4.1307925464870465e-01  6.6353904898433835e-01  4.6311429447266611e-01  6.9971320234777767e-01  4.0603003044751668e-01  4.4161600915137378e-01  1.9719276261779557e-02  2.9270177828163385e-01  2.5691804330376472e-01  1.5833176594539231e-02  1.2039093195345441e-01  4.2262156384942251e-01  2.2537101175647048e-01  1.0951485682391825e-01  2.3800251158326548e-02  2.8692131412326582e-01  4.5997106973871960e-01  4.2117307020247713e-01  2.1725902608143366e-01  1.6514621650707523e-02  3.1392062613327880e-02  2.5042494563846190e-01  3.3988425232622810e-01  4.6104852301751825e-01  6.5990534418556257e-01  2.6794172631819463e-01  2.2780164271289469e-01  1.4304007962840767e-01  2.6348086939420551e-02  2.6191526969935871e-02  1.4400781158736636e-01  2.3355964154876743e-01  2.8055706339731346e-01  5.2610787855047869e-01  4.5410273893479602e-01  4.0877658114157828e-01  5.0910682924210326e-01  7.2869188513910121e-01  4.0298601114275756e-01  7.6619182750515172e-02  2.1691285723572394e-02  2.0628691925355336e-01  2.8261091385207787e-01  1.5164935530581047e-02  1.3243052477494294e-01  4.3144854324928111e-01  2.3217385630563109e-01  1.2039093195344827e-01  2.5992704092126690e-02  3.0940312691310401e-01  4.9601225235426022e-01  4.5997106973871216e-01  2.3883532685703882e-01  1.7013117011767373e-02  3.2047725063400222e-02  2.7546847947368586e-01  3.2553939783408281e-01  5.0715528868509918e-01  6.7368829180878886e-01  2.7602957176988041e-01  2.5042494563844525e-01  1.5621677428369043e-01  2.8412599852141809e-02  2.8243772575381285e-02  1.5727365264528304e-01  2.5675477947233460e-01  2.8902570394955679e-01  5.3709629893246125e-01  4.9951489736888299e-01  3.9152411788051367e-01  5.6001962497562052e-01  7.4391152561456619e-01  3.1060168877636335e-01  7.8931939771363577e-02  2.3689463083390094e-02  1.9758055577812850e-01  3.0864472009542732e-01  1.5051243554498300e-02  1.4462987891772205e-01  2.6782847413058847e-01  2.4697494215262553e-01  1.3243052477493616e-01  2.8029370866383140e-02  3.2825376088100705e-01  5.2623219714283154e-01  4.9601225235425200e-01  2.6271985071683890e-01  1.8097703405011597e-02  1.0440961728666223e-01  3.0084433252556647e-01  3.2309881921388928e-01  5.5387387552576350e-01  3.3988425232621849e-01  2.9362645995136866e-01  2.7546847947366754e-01  1.6845719038804957e-01  3.0143660314370570e-02  2.9964547100199648e-02  1.6959688079704821e-01  2.8243132295995471e-01  3.0745109569785961e-01  3.6461220798222455e-01  5.4552965977319223e-01  3.8858884983693198e-01  6.1160801627433581e-01  1.3796446744710153e-01  1.7067445800078290e-01  8.3963851784264062e-02  2.5545658660076170e-02  1.9609928843105354e-01  3.3282867741822264e-01  1.5505566714228562e-02  1.5596240007105919e-01  2.5652474215724297e-01  2.6859375184848405e-01  1.4462987891771473e-01  2.9737082794909279e-02  3.4184841877757444e-01  5.4802614909974179e-01  5.2623219714282288e-01  2.8692131412325156e-01  1.9681875477023884e-02  1.0000299721730931e-01  3.2441708794595281e-01  3.3285158654629360e-01  5.9727284299808847e-01  3.2553939783407376e-01  3.1932888346052962e-01  3.0084433252554643e-01  1.7872057998901617e-01  3.1392062613324750e-02  3.1205531409897971e-02  1.7992970695139127e-01  3.0844858548804238e-01  3.3436365075604707e-01  3.4922370723890456e-01  5.8827481350916044e-01  4.0031843971796921e-01  2.0844339810618027e-02  1.4367827779855505e-01  1.6347112260412824e-01  9.1313579320321248e-02  2.7102048427931787e-02  2.0201856334134674e-01  3.5310653186212504e-01  1.6494046759722953e-02  1.6546453453824217e-01  2.5460156847864973e-01  2.9526817675435163e-01  1.5596240007105125e-01  3.0968646650731301e-02  3.4898835012168111e-01  5.5947235994763600e-01  5.4802614909973291e-01  3.0940312691308863e-01  2.1636510332843865e-02  9.9253271750629507e-02  3.4418245954647880e-01  3.5407087878346410e-01  6.3366217058716590e-01  3.2309881921388023e-01  3.5104188595415226e-01  3.2441708794593127e-01  1.8612230826626672e-01  3.2047725063397023e-02  3.1857297922727755e-02  1.8738151132636233e-01  3.3261717461995122e-01  3.6756977722757855e-01  3.4660556664141423e-01  6.2411592892591605e-01  1.8610198365085065e-01  2.2114297952259259e-02  1.4667917814728140e-01  1.6224557469963166e-01  1.0038205987023338e-01  2.8224482107549239e-02  2.1489724893618661e-01  3.6773046941831683e-01  1.7937843668450165e-02  1.7231726254667343e-01  2.6228674004900376e-01  3.2479621980198009e-01  1.6546453453823373e-01  3.1615465529393393e-02  2.6242210596730087e-01  3.2287700304556805e-01  5.5947235994762690e-01  3.2825376088099067e-01  2.3800251158324667e-02  1.0224924081272316e-01  3.5843680587590193e-01  3.8506426977506808e-01  6.5990534418556857e-01  3.3285158654628449e-01  3.8614753138440294e-01  3.4418245954645593e-01  1.9000970522243768e-01  1.7505465207711488e-02  1.0511599639196004e-01  1.9129520831173785e-01  3.5288214308602550e-01  4.0432828037643892e-01  3.5706788728930311e-01  1.9744039645069500e-01  1.9744039645069325e-01  2.3030163514551193e-02  1.3971221871754014e-01  1.6714297217266369e-01  1.1042068244595318e-01  2.8813985681067272e-02  2.3370815618216925e-01  3.7541097972803761e-01  1.9719276261778620e-02  1.7591632387446085e-01  2.7900752255986161e-01  3.5471608998548926e-01  1.7231726254666463e-01  1.0160299149134693e-01  2.5134655039254539e-01  3.0924994149196866e-01  2.6242210596729243e-01  3.4184841877755751e-01  2.5992704092124626e-02  1.0876763101884047e-01  3.6592320641069570e-01  4.2330554633998979e-01  6.7368829180879486e-01  3.5407087878345428e-01  4.2171901684611096e-01  3.5843680587587812e-01  1.7610104204203759e-02  1.6766645007883833e-02  1.0067956351012040e-01  2.0615583000665227e-01  3.6749678756164844e-01  4.4157455641918381e-01  2.3511177254283113e-02  2.0561740754572660e-01  2.0561740754572475e-01  2.3511177254282534e-02  1.3381564823932254e-01  1.7779833845383874e-01  1.2059251414513872e-01  8.9631018171032459e-02  2.5691804330376822e-01  1.6083852460973447e-01  2.1691285723571367e-02  1.7829434002474071e-01  3.0343028578175596e-01  3.8250998446476497e-01  1.7591632387445189e-01  9.7314825390873577e-02  2.4946219777277420e-01  3.0693148541407755e-01  2.5134655039253734e-01  3.4898835012166379e-01  2.8029370866380913e-02  1.1828854312259775e-01  2.8186167172704968e-01  4.6563785770528093e-01  3.7018917868385071e-01  3.8506426977505753e-01  4.5476294742902934e-01  3.6592320641067139e-01  1.6866867703330641e-02  1.6640944967855280e-02  9.9924765805670460e-02  1.9745499916817486e-01  3.7517241713382199e-01  1.0460610272917848e-02  6.9734374383770781e-02  2.0991198400824029e-01  2.0991198400823841e-01  1.4539252398201079e-02  1.3281242831475093e-01  1.9336181388082369e-01  1.3004157977189856e-01  8.5848130600200800e-02  2.8261091385208176e-01  1.5405031592849350e-01  2.3689463083388988e-02  1.7076940661896120e-01  3.3356437608188005e-01  4.0581471243617506e-01  1.6780767419164937e-02  9.6585253228926332e-02  2.5699223696953638e-01  3.1619624030088261e-01  2.4946219777276613e-01  1.0160299149134024e-01  2.9737082794906916e-02  1.3003594543197144e-01  2.6996566701319608e-01  5.0853190451273211e-01  3.5456530124192170e-01  4.2330554633997808e-01  4.8246974519050434e-01  1.0440961728665318e-01  1.6740416290751205e-02  1.7143253409766988e-02  1.0294100397707200e-01  1.9597467312276703e-01  1.0994318160939709e-01  1.0776364748266733e-02  6.6791226983473284e-02  1.3102992899074412e-01  6.9734374383769546e-02  1.3925621555791268e-02  1.3682138357913987e-01  2.1256484875609488e-01  1.3796446744709778e-01  8.5204524592693162e-02  3.0864472009543148e-01  1.5289539609393418e-01  2.5545658660074966e-02  1.6948914326051581e-01  3.6692219799268949e-01  4.2262156384941324e-01  1.6072533173986048e-02  9.9500687908554444e-02  2.7337549485189672e-01  3.3635375403502782e-01  2.5699223696952800e-01  9.7314825390867138e-02  3.0968646650728838e-02  1.4304007962842002e-01  2.6794172631820706e-01  5.4837808711457070e-01  3.5190711455413243e-01  4.6563785770526800e-01  5.0245127141492629e-01  1.0000299721730073e-01  1.7245727283618718e-02  1.8236135999789186e-02  1.0950349409238766e-01  1.0206836804840055e-01  1.2093795603798826e-01  1.1463358117354999e-02  6.6290491153411304e-02  1.2549979556260196e-01  6.6791226983472105e-02  1.3821220753712955e-02  1.4554374826000024e-01  2.3382221578249274e-01  1.4367827779855116e-01  8.7776430940238723e-02  3.3282867741822719e-01  1.5751055757279053e-01  2.7102048427930514e-02  1.7460518851134693e-01  4.0072266690849873e-01  4.3144854324927162e-01  1.5952036911174951e-02  1.0584385783734630e-01  2.9730526176348093e-01  3.6579628668871395e-01  2.7337549485188783e-01  9.6585253228919907e-02  3.1615465529390881e-02  1.5621677428370387e-01  2.7602957176989318e-01  5.8178846243737359e-01  3.6252946290939619e-01  5.0853190451271812e-01  5.1294559399945128e-01  9.9253271750620931e-02  1.8345142584205696e-02  1.9832425689467924e-02  1.1463358117355188e-02  1.0420019344304943e-01  1.3207862740147164e-01  1.2466796585462516e-02  6.8291475676174399e-02  1.2455891983472824e-01  6.6290491153410083e-02  1.4238415562993666e-02  1.5828383666180434e-01  2.5536166087362683e-01  1.4667917814727743e-01  9.3372179360676821e-02  3.5310653186212970e-01  1.6755185731919220e-01  2.8224482107547914e-02  1.8573627116470598e-01  4.3212142167027001e-01  1.7829434002473415e-01  1.6433550600550659e-02  1.1510883913511311e-01  3.2683106727627242e-01  4.0212403263578844e-01  2.9730526176347133e-01  9.9500687908547866e-02  1.7610104204205525e-02  1.6845719038806414e-01  2.9362645995138237e-01  6.0588328192635166e-01  3.8564072008523947e-01  5.4837808711455549e-01  2.0107342355442787e-01  1.0224924081271433e-01  1.9950974102636604e-02  7.7446220525655890e-02  1.2466796585462724e-02  8.8276556739617221e-02  1.4242769116430865e-01  1.3704891764695271e-02  7.2645057988088096e-02  1.2831874219272799e-01  6.8291475676173191e-02  1.5146114708911413e-02  1.7400322806905374e-01  2.7537060677925096e-01  1.4539252398200584e-02  1.0154545944687517e-01  3.6773046941832183e-01  1.8221841290576174e-01  2.8813985681065916e-02  2.0199458897188957e-01  4.5844876629301473e-01  1.7076940661895504e-01  1.7481189628820445e-02  1.2654046054990772e-01  3.5951553036307815e-01  4.4233810472671348e-01  3.2683106727626171e-01  1.0584385783733925e-01  1.6866867703332334e-02  1.7872057998903160e-01  3.1932888346054439e-01  6.1853791128215074e-01  4.1939755900108594e-01  5.8178846243735749e-01  1.9258709627275872e-01  1.0876763101883109e-01  7.3646975113748861e-02  7.9063781605479153e-02  1.3704891764695495e-02  8.4550834371397585e-02  1.5110521262253868e-01  1.5075437816895411e-02  7.9004001410852620e-02  1.3649906339337486e-01  7.2645057988086778e-02  1.6471921159839736e-02  1.9140427299481236e-01  2.9214778212878417e-01  1.3925621555790789e-02  1.1163008246549055e-01  3.7541097972804272e-01  2.0031478088926938e-01  1.6780767419165971e-02  2.2205495693592811e-01  4.7743546159889488e-01  1.6948914326050962e-01  1.9011395521566991e-02  1.3919503175177811e-01  3.9263370521122415e-01  4.8308580394166006e-01  3.5951553036306660e-01  1.1510883913510546e-01  1.6740416290752874e-02  1.8612230826628279e-01  3.5104188595416863e-01  3.7018917868385415e-01  4.6104852301751409e-01  6.0588328192633489e-01  1.9114326504122231e-01  4.1299674625218816e-02  8.1011978262380047e-02  8.8338585654704881e-03  1.5075437816895659e-02  8.3916954232590227e-02  1.5736324807193650e-01  1.6464170551272903e-02  8.6850000390328669e-02  1.4844743050075818e-01  7.9004001410851191e-02  1.8107770918107280e-02  2.0903622389641219e-01  3.0424710779263076e-01  1.3821220753712485e-02  1.2279355398038257e-01  2.2190247400891541e-01  2.2034709029081898e-01  1.6072533173987037e-02  2.4426137416455590e-01  4.8740729773974301e-01  1.7460518851134058e-01  2.0899444065904899e-02  1.5201752482987410e-01  4.2339864675107414e-01  5.2093814906572766e-01  3.9263370521121127e-01  1.2654046054989931e-01  1.7245727283620445e-02  1.9000970522245408e-01  3.8614753138442087e-01  3.5456530124192487e-01  5.0715528868509463e-01  6.1853791128213365e-01  1.1751968441779932e-02  4.2546309071311059e-02  8.8474712509710438e-02  8.4610245348892797e-03  1.6464170551273170e-02  8.6449995151358400e-02  1.6064997612332557e-01  1.7754225984082835e-02  9.5535360859586763e-02  1.6318995451745683e-01  8.6850000390327142e-02  1.9918623157735189e-02  2.2541532513639484e-01  3.1060168877636157e-01  1.4238415562993186e-02  1.3410516098339728e-01  2.1253705422462463e-01  2.4064522165710986e-01  1.5952036911175950e-02  2.6676246303284618e-01  2.6782847413058664e-01  1.8573627116469918e-01  2.2989475205843667e-02  1.6392890737892912e-01  4.4919454930719643e-01  5.5267672412774660e-01  4.2339864675106037e-01  1.3919503175176889e-01  1.8345142584207521e-02  2.0107342355444141e-01  4.2171901684613056e-01  3.5190711455413559e-01  5.5387387552575851e-01  4.8988732910440445e-02  8.8338585654705679e-03  4.5258636734113254e-02  9.5407177354143419e-02  8.3975919804206867e-03  1.7754225984083122e-02  9.1961183275929684e-02  5.7257613793188354e-02  1.8835916459381017e-02  1.0433597312224253e-01  1.7950962721263136e-01  9.5535360859585070e-02  2.1753504793602198e-02  2.3914893483612953e-01  1.3971221871753772e-01  1.5146114708910901e-02  1.4461301444347377e-01  2.1094365756053221e-01  2.5950105618650271e-01  1.6433550600551693e-02  2.8766472249581532e-01  2.5652474215724119e-01  2.0199458897188224e-01  2.5107240351525496e-02  1.7391640770120720e-01  4.6779798041623960e-01  5.7556587845684493e-01  4.4919454930718189e-01  1.5201752482986403e-01  1.9950974102638588e-02  1.9258709627277149e-01  4.5476294742905049e-01  3.6252946290939941e-01  4.6175456163305741e-02  5.1017605520814510e-02  8.4610245348893595e-03  4.9220325503511318e-02  1.0121993624949512e-01  8.6510740604133496e-03  1.8835916459381319e-02  1.0001095263034339e-01  5.4841049528120862e-02  1.9616007568608044e-02  1.1251125219534799e-01  1.9604585644019618e-01  1.0433597312224066e-01  2.3458007729492508e-02  2.4905330865563993e-01  1.3381564823932027e-01  1.6471921159839177e-02  1.5342367847737218e-01  2.1731101110716436e-01  2.7531136642241011e-01  1.7481189628821531e-02  3.0519092671795295e-01  2.5460156847864790e-01  2.2205495693592012e-01  2.7074526326696959e-02  1.8111917076765977e-01  4.7756852572116593e-01  5.8758729096150886e-01  4.6779798041622439e-01  1.6392890737891830e-01  2.1932333523091350e-02  1.9114326504123508e-01  4.8246974519052671e-01  1.0418960352123662e-02  4.8988732910440515e-02  5.2083171955381931e-02  8.3975919804207683e-03  5.4108465556845120e-02  1.0541196866347581e-01  9.2025801251975192e-03  1.9616007568608363e-02  1.0994318160939751e-01  5.4429904536522883e-02  2.0025712395636854e-02  1.1936609058552555e-01  2.1140709321753259e-01  1.1251125219534591e-01  2.4887205687951067e-02  2.5425509818324016e-01  1.3281242831474865e-01  1.8107770918106662e-02  1.5977773339066506e-01  2.3116459041223575e-01  2.8671341047364629e-01  1.9011395521568171e-02  3.1783043534302235e-01  2.6228674004900204e-01  2.4426137416454707e-01  2.8724063584871656e-02  1.8490207094606906e-01  3.0742795435743564e-01  3.0742795435743053e-01  4.7756852572115038e-01  1.7391640770119568e-01  2.4125657895272393e-02  1.9691294193339720e-01  6.7302812715527034e-03  1.1053743878339083e-02  5.1017605520814580e-02  6.4576623911638707e-03  8.6510740604134294e-03  5.9519536664358545e-02  1.0761362933458761e-01  1.0008122690380468e-02  2.0025712395637180e-02  1.2093795603798876e-01  5.6072876170282650e-02  1.2919303338766964e-02  1.2430964755073928e-01  2.2428724013854703e-01  1.1936609058552340e-01  2.5917911463937130e-02  1.7067445800078390e-01  1.3682138357913756e-01  1.9918623157734513e-02  1.6311489098468221e-01  2.5139945005016151e-01  2.9270177828162636e-01  2.0899444065906193e-02  3.2446872109415009e-01  2.7900752255985950e-01  2.6676246303283657e-01  2.9913673162496983e-02  1.9176778381424711e-01  2.9445292170472370e-01  2.9445292170471882e-01  1.9176778381423765e-01  1.8111917076764777e-01  2.6348086939423181e-02  2.3916186293838366e-02  7.0090164524958419e-03  1.1511535637065558e-02  5.2083171955382014e-02  6.1851159971293103e-03  9.2025801251976059e-03  6.5002410853799389e-02  4.3445250172878001e-02  1.1002043492022414e-02  5.7257613793189013e-02  1.3207862740147211e-01  5.9647522631733139e-02  1.2374042635259526e-02  1.2690600985686384e-01  2.3357611558681377e-01  1.2430964755073703e-01  2.6459239427649467e-02  1.6347112260412930e-01  1.4554374825999780e-01  2.1753504793601452e-02  1.6083852460973858e-01  2.7636628455613454e-01  8.9631018171029225e-02  2.2989475205845093e-02  2.3707934932484681e-01  3.0343028578175374e-01  2.8766472249580494e-01  3.0538457601734782e-02  1.8367420214263677e-01  2.9224539932756344e-01  2.9224539932755866e-01  1.8367420214262761e-01  1.8490207094605682e-01  1.2492834166980781e-02  3.9318700277132844e-03  7.1554085184281288e-03  1.1751968441779989e-02  2.8619506801351665e-02  6.1387459971648083e-03  1.0008122690380561e-02  7.0095695875752928e-02  4.1611638324610851e-02  1.2102293500050170e-02  5.4841049528121473e-02  1.4242769116430917e-01  6.4868734263024738e-02  1.2281274066840752e-02  1.1534584451107474e-01  2.3845464459939958e-01  1.2690600985686154e-01  8.0599655877314658e-02  1.6224557469963255e-01  1.5828383666180174e-01  2.3458007729491706e-02  1.5405031592849749e-01  3.0400405994049562e-01  8.5848130600197664e-02  2.5107240351527053e-02  2.2707338774857114e-01  3.3356437608187778e-01  3.0519092671794190e-01  1.7372579218514268e-02  1.8229719114546433e-01  3.0106685336612038e-01  3.0106685336611549e-01  1.8229719114545526e-01  4.8969094002669364e-03  1.2869931505959968e-02  3.7659249948276824e-03  6.4576623911639019e-03  2.8619506801351696e-02  2.7411617180421809e-02  6.3240446050914579e-03  1.1002043492022518e-02  7.4366332436095028e-02  4.1299674625218566e-02  1.3217143453245411e-02  5.4429904536523500e-02  1.5110521262253923e-01  7.1310939894873665e-02  1.2651985444897812e-02  1.1047765969680191e-01  1.1534584451107374e-01  1.2919303338766655e-02  7.7197938004939320e-02  1.6714297217266469e-01  1.7400322806905080e-01  2.4887205687950220e-02  1.5289539609393801e-01  3.3200857924870952e-01  8.5204524592690067e-02  2.7074526326698642e-02  2.2537101175647534e-01  3.6692219799268699e-01  3.1783043534301081e-01  1.6639367487352136e-02  1.8779984849010675e-01  3.2025986851977528e-01  3.2025986851976995e-01  2.3522133984767535e-03  5.3866206626212087e-03  1.3690389778461992e-02  3.7376917422973317e-03  6.185115997