<?xml version="1.0"?>
<VTKFile type="UnstructuredGrid"  version="0.1"  >
<UnstructuredGrid>
<Piece  NumberOfPoints="1089" NumberOfCells="2048">
<Points>
<DataArray  type="Float64"  NumberOfComponents="3"  format="ascii">0 0 0  0.03125 0 0  0.0625 0 0  0.09375 0 0  0.125 0 0  0.15625 0 0  0.1875 0 0  0.21875 0 0  0.25 0 0  0.28125 0 0  0.3125 0 0  0.34375 0 0  0.375 0 0  0.40625 0 0  0.4375 0 0  0.46875 0 0  0.5 0 0  0.53125 0 0  0.5625 0 0  0.59375 0 0  0.625 0 0  0.65625 0 0  0.6875 0 0  0.71875 0 0  0.75 0 0  0.78125 0 0  0.8125 0 0  0.84375 0 0  0.875 0 0  0.90625 0 0  0.9375 0 0  0.96875 0 0  1 0 0  0 0.03125 0  0.03125 0.03125 0  0.0625 0.03125 0  0.09375 0.03125 0  0.125 0.03125 0  0.15625 0.03125 0  0.1875 0.03125 0  0.21875 0.03125 0  0.25 0.03125 0  0.28125 0.03125 0  0.3125 0.03125 0  0.34375 0.03125 0  0.375 0.03125 0  0.40625 0.03125 0  0.4375 0.03125 0  0.46875 0.03125 0  0.5 0.03125 0  0.53125 0.03125 0  0.5625 0.03125 0  0.59375 0.03125 0  0.625 0.03125 0  0.65625 0.03125 0  0.6875 0.03125 0  0.71875 0.03125 0  0.75 0.03125 0  0.78125 0.03125 0  0.8125 0.03125 0  0.84375 0.03125 0  0.875 0.03125 0  0.90625 0.03125 0  0.9375 0.03125 0  0.96875 0.03125 0  1 0.03125 0  0 0.0625 0  0.03125 0.0625 0  0.0625 0.0625 0  0.09375 0.0625 0  0.125 0.0625 0  0.15625 0.0625 0  0.1875 0.0625 0  0.21875 0.0625 0  0.25 0.0625 0  0.28125 0.0625 0  0.3125 0.0625 0  0.34375 0.0625 0  0.375 0.0625 0  0.40625 0.0625 0  0.4375 0.0625 0  0.46875 0.0625 0  0.5 0.0625 0  0.53125 0.0625 0  0.5625 0.0625 0  0.59375 0.0625 0  0.625 0.0625 0  0.65625 0.0625 0  0.6875 0.0625 0  0.71875 0.0625 0  0.75 0.0625 0  0.78125 0.0625 0  0.8125 0.0625 0  0.84375 0.0625 0  0.875 0.0625 0  0.90625 0.0625 0  0.9375 0.0625 0  0.96875 0.0625 0  1 0.0625 0  0 0.09375 0  0.03125 0.09375 0  0.0625 0.09375 0  0.09375 0.09375 0  0.125 0.09375 0  0.15625 0.09375 0  0.1875 0.09375 0  0.21875 0.09375 0  0.25 0.09375 0  0.28125 0.09375 0  0.3125 0.09375 0  0.34375 0.09375 0  0.375 0.09375 0  0.40625 0.09375 0  0.4375 0.09375 0  0.46875 0.09375 0  0.5 0.09375 0  0.53125 0.09375 0  0.5625 0.09375 0  0.59375 0.09375 0  0.625 0.09375 0  0.65625 0.09375 0  0.6875 0.09375 0  0.71875 0.09375 0  0.75 0.09375 0  0.78125 0.09375 0  0.8125 0.09375 0  0.84375 0.09375 0  0.875 0.09375 0  0.90625 0.09375 0  0.9375 0.09375 0  0.96875 0.09375 0  1 0.09375 0  0 0.125 0  0.03125 0.125 0  0.0625 0.125 0  0.09375 0.125 0  0.125 0.125 0  0.15625 0.125 0  0.1875 0.125 0  0.21875 0.125 0  0.25 0.125 0  0.28125 0.125 0  0.3125 0.125 0  0.34375 0.125 0  0.375 0.125 0  0.40625 0.125 0  0.4375 0.125 0  0.46875 0.125 0  0.5 0.125 0  0.53125 0.125 0  0.5625 0.125 0  0.59375 0.125 0  0.625 0.125 0  0.65625 0.125 0  0.6875 0.125 0  0.71875 0.125 0  0.75 0.125 0  0.78125 0.125 0  0.8125 0.125 0  0.84375 0.125 0  0.875 0.125 0  0.90625 0.125 0  0.9375 0.125 0  0.96875 0.125 0  1 0.125 0  0 0.15625 0  0.03125 0.15625 0  0.0625 0.15625 0  0.09375 0.15625 0  0.125 0.15625 0  0.15625 0.15625 0  0.1875 0.15625 0  0.21875 0.15625 0  0.25 0.15625 0  0.28125 0.15625 0  0.3125 0.15625 0  0.34375 0.15625 0  0.375 0.15625 0  0.40625 0.15625 0  0.4375 0.15625 0  0.46875 0.15625 0  0.5 0.15625 0  0.53125 0.15625 0  0.5625 0.15625 0  0.59375 0.15625 0  0.625 0.15625 0  0.65625 0.15625 0  0.6875 0.15625 0  0.71875 0.15625 0  0.75 0.15625 0  0.78125 0.15625 0  0.8125 0.15625 0  0.84375 0.15625 0  0.875 0.15625 0  0.90625 0.15625 0  0.9375 0.15625 0  0.96875 0.15625 0  1 0.15625 0  0 0.1875 0  0.03125 0.1875 0  0.0625 0.1875 0  0.09375 0.1875 0  0.125 0.1875 0  0.15625 0.1875 0  0.1875 0.1875 0  0.21875 0.1875 0  0.25 0.1875 0  0.28125 0.1875 0  0.3125 0.1875 0  0.34375 0.1875 0  0.375 0.1875 0  0.40625 0.1875 0  0.4375 0.1875 0  0.46875 0.1875 0  0.5 0.1875 0  0.53125 0.1875 0  0.5625 0.1875 0  0.59375 0.1875 0  0.625 0.1875 0  0.65625 0.1875 0  0.6875 0.1875 0  0.71875 0.1875 0  0.75 0.1875 0  0.78125 0.1875 0  0.8125 0.1875 0  0.84375 0.1875 0  0.875 0.1875 0  0.90625 0.1875 0  0.9375 0.1875 0  0.96875 0.1875 0  1 0.1875 0  0 0.21875 0  0.03125 0.21875 0  0.0625 0.21875 0  0.09375 0.21875 0  0.125 0.21875 0  0.15625 0.21875 0  0.1875 0.21875 0  0.21875 0.21875 0  0.25 0.21875 0  0.28125 0.21875 0  0.3125 0.21875 0  0.34375 0.21875 0  0.375 0.21875 0  0.40625 0.21875 0  0.4375 0.21875 0  0.46875 0.21875 0  0.5 0.21875 0  0.53125 0.21875 0  0.5625 0.21875 0  0.59375 0.21875 0  0.625 0.21875 0  0.65625 0.21875 0  0.6875 0.21875 0  0.71875 0.21875 0  0.75 0.21875 0  0.78125 0.21875 0  0.8125 0.21875 0  0.84375 0.21875 0  0.875 0.21875 0  0.90625 0.21875 0  0.9375 0.21875 0  0.96875 0.21875 0  1 0.21875 0  0 0.25 0  0.03125 0.25 0  0.0625 0.25 0  0.09375 0.25 0  0.125 0.25 0  0.15625 0.25 0  0.1875 0.25 0  0.21875 0.25 0  0.25 0.25 0  0.28125 0.25 0  0.3125 0.25 0  0.34375 0.25 0  0.375 0.25 0  0.40625 0.25 0  0.4375 0.25 0  0.46875 0.25 0  0.5 0.25 0  0.53125 0.25 0  0.5625 0.25 0  0.59375 0.25 0  0.625 0.25 0  0.65625 0.25 0  0.6875 0.25 0  0.71875 0.25 0  0.75 0.25 0  0.78125 0.25 0  0.8125 0.25 0  0.84375 0.25 0  0.875 0.25 0  0.90625 0.25 0  0.9375 0.25 0  0.96875 0.25 0  1 0.25 0  0 0.28125 0  0.03125 0.28125 0  0.0625 0.28125 0  0.09375 0.28125 0  0.125 0.28125 0  0.15625 0.28125 0  0.1875 0.28125 0  0.21875 0.28125 0  0.25 0.28125 0  0.28125 0.28125 0  0.3125 0.28125 0  0.34375 0.28125 0  0.375 0.28125 0  0.40625 0.28125 0  0.4375 0.28125 0  0.46875 0.28125 0  0.5 0.28125 0  0.53125 0.28125 0  0.5625 0.28125 0  0.59375 0.28125 0  0.625 0.28125 0  0.65625 0.28125 0  0.6875 0.28125 0  0.71875 0.28125 0  0.75 0.28125 0  0.78125 0.28125 0  0.8125 0.28125 0  0.84375 0.28125 0  0.875 0.28125 0  0.90625 0.28125 0  0.9375 0.28125 0  0.96875 0.28125 0  1 0.28125 0  0 0.3125 0  0.03125 0.3125 0  0.0625 0.3125 0  0.09375 0.3125 0  0.125 0.3125 0  0.15625 0.3125 0  0.1875 0.3125 0  0.21875 0.3125 0  0.25 0.3125 0  0.28125 0.3125 0  0.3125 0.3125 0  0.34375 0.3125 0  0.375 0.3125 0  0.40625 0.3125 0  0.4375 0.3125 0  0.46875 0.3125 0  0.5 0.3125 0  0.53125 0.3125 0  0.5625 0.3125 0  0.59375 0.3125 0  0.625 0.3125 0  0.65625 0.3125 0  0.6875 0.3125 0  0.71875 0.3125 0  0.75 0.3125 0  0.78125 0.3125 0  0.8125 0.3125 0  0.84375 0.3125 0  0.875 0.3125 0  0.90625 0.3125 0  0.9375 0.3125 0  0.96875 0.3125 0  1 0.3125 0  0 0.34375 0  0.03125 0.34375 0  0.0625 0.34375 0  0.09375 0.34375 0  0.125 0.34375 0  0.15625 0.34375 0  0.1875 0.34375 0  0.21875 0.34375 0  0.25 0.34375 0  0.28125 0.34375 0  0.3125 0.34375 0  0.34375 0.34375 0  0.375 0.34375 0  0.40625 0.34375 0  0.4375 0.34375 0  0.46875 0.34375 0  0.5 0.34375 0  0.53125 0.34375 0  0.5625 0.34375 0  0.59375 0.34375 0  0.625 0.34375 0  0.65625 0.34375 0  0.6875 0.34375 0  0.71875 0.34375 0  0.75 0.34375 0  0.78125 0.34375 0  0.8125 0.34375 0  0.84375 0.34375 0  0.875 0.34375 0  0.90625 0.34375 0  0.9375 0.34375 0  0.96875 0.34375 0  1 0.34375 0  0 0.375 0  0.03125 0.375 0  0.0625 0.375 0  0.09375 0.375 0  0.125 0.375 0  0.15625 0.375 0  0.1875 0.375 0  0.21875 0.375 0  0.25 0.375 0  0.28125 0.375 0  0.3125 0.375 0  0.34375 0.375 0  0.375 0.375 0  0.40625 0.375 0  0.4375 0.375 0  0.46875 0.375 0  0.5 0.375 0  0.53125 0.375 0  0.5625 0.375 0  0.59375 0.375 0  0.625 0.375 0  0.65625 0.375 0  0.6875 0.375 0  0.71875 0.375 0  0.75 0.375 0  0.78125 0.375 0  0.8125 0.375 0  0.84375 0.375 0  0.875 0.375 0  0.90625 0.375 0  0.9375 0.375 0  0.96875 0.375 0  1 0.375 0  0 0.40625 0  0.03125 0.40625 0  0.0625 0.40625 0  0.09375 0.40625 0  0.125 0.40625 0  0.15625 0.40625 0  0.1875 0.40625 0  0.21875 0.40625 0  0.25 0.40625 0  0.28125 0.40625 0  0.3125 0.40625 0  0.34375 0.40625 0  0.375 0.40625 0  0.40625 0.40625 0  0.4375 0.40625 0  0.46875 0.40625 0  0.5 0.40625 0  0.53125 0.40625 0  0.5625 0.40625 0  0.59375 0.40625 0  0.625 0.40625 0  0.65625 0.40625 0  0.6875 0.40625 0  0.71875 0.40625 0  0.75 0.40625 0  0.78125 0.40625 0  0.8125 0.40625 0  0.84375 0.40625 0  0.875 0.40625 0  0.90625 0.40625 0  0.9375 0.40625 0  0.96875 0.40625 0  1 0.40625 0  0 0.4375 0  0.03125 0.4375 0  0.0625 0.4375 0  0.09375 0.4375 0  0.125 0.4375 0  0.15625 0.4375 0  0.1875 0.4375 0  0.21875 0.4375 0  0.25 0.4375 0  0.28125 0.4375 0  0.3125 0.4375 0  0.34375 0.4375 0  0.375 0.4375 0  0.40625 0.4375 0  0.4375 0.4375 0  0.46875 0.4375 0  0.5 0.4375 0  0.53125 0.4375 0  0.5625 0.4375 0  0.59375 0.4375 0  0.625 0.4375 0  0.65625 0.4375 0  0.6875 0.4375 0  0.71875 0.4375 0  0.75 0.4375 0  0.78125 0.4375 0  0.8125 0.4375 0  0.84375 0.4375 0  0.875 0.4375 0  0.90625 0.4375 0  0.9375 0.4375 0  0.96875 0.4375 0  1 0.4375 0  0 0.46875 0  0.03125 0.46875 0  0.0625 0.46875 0  0.09375 0.46875 0  0.125 0.46875 0  0.15625 0.46875 0  0.1875 0.46875 0  0.21875 0.46875 0  0.25 0.46875 0  0.28125 0.46875 0  0.3125 0.46875 0  0.34375 0.46875 0  0.375 0.46875 0  0.40625 0.46875 0  0.4375 0.46875 0  0.46875 0.46875 0  0.5 0.46875 0  0.53125 0.46875 0  0.5625 0.46875 0  0.59375 0.46875 0  0.625 0.46875 0  0.65625 0.46875 0  0.6875 0.46875 0  0.71875 0.46875 0  0.75 0.46875 0  0.78125 0.46875 0  0.8125 0.46875 0  0.84375 0.46875 0  0.875 0.46875 0  0.90625 0.46875 0  0.9375 0.46875 0  0.96875 0.46875 0  1 0.46875 0  0 0.5 0  0.03125 0.5 0  0.0625 0.5 0  0.09375 0.5 0  0.125 0.5 0  0.15625 0.5 0  0.1875 0.5 0  0.21875 0.5 0  0.25 0.5 0  0.28125 0.5 0  0.3125 0.5 0  0.34375 0.5 0  0.375 0.5 0  0.40625 0.5 0  0.4375 0.5 0  0.46875 0.5 0  0.5 0.5 0  0.53125 0.5 0  0.5625 0.5 0  0.59375 0.5 0  0.625 0.5 0  0.65625 0.5 0  0.6875 0.5 0  0.71875 0.5 0  0.75 0.5 0  0.78125 0.5 0  0.8125 0.5 0  0.84375 0.5 0  0.875 0.5 0  0.90625 0.5 0  0.9375 0.5 0  0.96875 0.5 0  1 0.5 0  0 0.53125 0  0.03125 0.53125 0  0.0625 0.53125 0  0.09375 0.53125 0  0.125 0.53125 0  0.15625 0.53125 0  0.1875 0.53125 0  0.21875 0.53125 0  0.25 0.53125 0  0.28125 0.53125 0  0.3125 0.53125 0  0.34375 0.53125 0  0.375 0.53125 0  0.40625 0.53125 0  0.4375 0.53125 0  0.46875 0.53125 0  0.5 0.53125 0  0.53125 0.53125 0  0.5625 0.53125 0  0.59375 0.53125 0  0.625 0.53125 0  0.65625 0.53125 0  0.6875 0.53125 0  0.71875 0.53125 0  0.75 0.53125 0  0.78125 0.531
[...]
<PointData  Scalars="phi"> 
<DataArray  type="Float64"  Name="phi"  format="ascii">0.0000000000000000e+00  0.0000000000000000e+00  0.0000000000000000e+00  0.0000000000000000e+00  0.0000000000000000e+00  0.0000000000000000e+00  0.0000000000000000e+00  0.0000000000000000e+00  0.0000000000000000e+00  0.0000000000000000e+00  0.0000000000000000e+00  0.0000000000000000e+00  0.0000000000000000e+00  0.0000000000000000e+00  0.0000000000000000e+00  0.0000000000000000e+00  0.0000000000000000e+00  0.0000000000000000e+00  0.0000000000000000e+00  0.0000000000000000e+00  0.0000000000000000e+00  0.0000000000000000e+00  0.0000000000000000e+00  0.0000000000000000e+00  0.0000000000000000e+00  0.0000000000000000e+00  0.0000000000000000e+00  0.0000000000000000e+00  0.0000000000000000e+00  0.0000000000000000e+00  0.0000000000000000e+00  0.0000000000000000e+00  0.0000000000000000e+00  0.0000000000000000e+00  -9.5679533497877874e-04  -1.8869043048957623e-03  -2.7696783244221140e-03  -3.5852175551271967e-03  -4.3154811798231663e-03  -4.9450310130840901e-03  -5.4615783399173798e-03  -5.8563775119955912e-03  -6.1244742859750210e-03  -6.2648089244381469e-03  -6.2801747272718395e-03  -6.1770361983188495e-03  -5.9652155093083154e-03  -5.6574604844127031e-03  -5.2689115720663746e-03  -4.8164889305811866e-03  -4.3182236447237834e-03  -3.7925590796915368e-03  -3.2576493804345776e-03  -2.7306820949545289e-03  -2.2272508394407349e-03  -1.7608018715424330e-03  -1.3421754756152591e-03  -9.7925930642539689e-04  -6.7676643358172291e-04  -4.3614595338275250e-04  -2.5562888667933064e-04  -1.3040688196477485e-04  -5.2936244594494821e-05  -1.3355339250932075e-05  -1.4722636038918610e-16  0.0000000000000000e+00  0.0000000000000000e+00  -1.8869043048957584e-03  -3.7233178652117203e-03  -5.4667576008996920e-03  -7.0772527351236156e-03  -8.5188274126252669e-03  -9.7607779241759771e-03  -1.0778697720349267e-02  -1.1555238788516865e-02  -1.2080597478042568e-02  -1.2352716202867191e-02  -1.2377199408817562e-02  -1.2166951057574425e-02  -1.1741550393335968e-02  -1.1126392085472503e-02  -1.0351625392240467e-02  -9.4509343258065443e-03  -8.4602065798361041e-03  -7.4161429576776391e-03  -6.3548610450812823e-03  -5.3105468229382152e-03  -4.3142058123244471e-03  -3.3925612672808360e-03  -2.5671410390384203e-03  -1.8535872590381829e-03  -1.2612142204046113e-03  -7.9283012492744546e-04  -4.4482809416067847e-04  -2.0754144176425826e-04  -6.5848122408109010e-05  -5.7670879884594430e-16  1.3355339250349096e-05  0.0000000000000000e+00  0.0000000000000000e+00  -2.7696783244220971e-03  -5.4667576008996712e-03  -8.0273750619780666e-03  -1.0391889806579579e-02  -1.2506825212605009e-02  -1.4326641181506072e-02  -1.5815199964051542e-02  -1.6946871472847538e-02  -1.7707242805990075e-02  -1.8093411534818180e-02  -1.8113856980342839e-02  -1.7787898734223831e-02  -1.7144766633888128e-02  -1.6222320638310903e-02  -1.5065471945634307e-02  -1.3724367694735836e-02  -1.2252410242885394e-02  -1.0704187958688709e-02  -9.1333974747026588e-03  -7.5908372873018781e-03  -6.1225494737137710e-03  -4.7681802387882161e-03  -3.5596212429759031e-03  -2.5199825396694658e-03  -1.6629348987241754e-03  -9.9244482457086980e-04  -5.0291026124808357e-04  -1.7968942077149330e-04  -1.2481703361959588e-15  6.5848122406411813e-05  5.2936244593636607e-05  0.0000000000000000e+00  0.0000000000000000e+00  -3.5852175551271534e-03  -7.0772527351235480e-03  -1.0391889806579522e-02  -1.3450683023830495e-02  -1.6183436392482736e-02  -1.8530475890444830e-02  -2.0444540222677138e-02  -2.1892212971278413e-02  -2.2854843082355483e-02  -2.3328922431348660e-02  -2.3325910389911393e-02  -2.2871516238793296e-02  -2.2004470589849681e-02  -2.0774836072182137e-02  -1.9241924711179456e-02  -1.7471904029773729e-02  -1.5535185362903414e-02  -1.3503695753660776e-02  -1.1448138787386583e-02  -9.4353496643101095e-03  -7.5258457157800990e-03  -5.7716655940443411e-03  -4.2145788216184747e-03  -2.8847327225175585e-03  -1.7997865439763868e-03  -9.6456348280475189e-04  -3.7123109738123065e-04  -2.0969369810428270e-15  1.7968942076825695e-04  2.0754144176205703e-04  1.3040688196366138e-04  0.0000000000000000e+00  0.0000000000000000e+00  -4.3154811798230813e-03  -8.5188274126251212e-03  -1.2506825212604850e-02  -1.6183436392482618e-02  -1.9462832295807954e-02  -2.2272163402117736e-02  -2.4553861838760377e-02  -2.6267385332139577e-02  -2.7390336551782551e-02  -2.7918917850945933e-02  -2.7867707722199545e-02  -2.7268771437412145e-02  -2.6170143675606432e-02  -2.4633744666057274e-02  -2.2732812660708770e-02  -2.0548953619124205e-02  -1.8168923162945716e-02  -1.5681265598422971e-02  -1.3172939745386716e-02  -1.0726061263298507e-02  -8.4148861357597228e-03  -6.3031501620910441e-03  -4.4418650906264991e-03  -2.8676539650927704e-03  -1.6016870428772791e-03  -6.4925610288879467e-04  -3.0400288978263620e-15  3.7123109737617946e-04  5.0291026124418348e-04  4.4482809415802472e-04  2.5562888667798780e-04  0.0000000000000000e+00  0.0000000000000000e+00  -4.9450310130839496e-03  -9.7607779241757273e-03  -1.4326641181505756e-02  -1.8530475890444521e-02  -2.2272163402117524e-02  -2.5466860529928401e-02  -2.8047695216097637e-02  -2.9967805235202760e-02  -3.1201643431596555e-02  -3.1745502382755107e-02  -3.1617241985170297e-02  -3.0855234234556828e-02  -2.9516569397780981e-02  -2.7674595818849672e-02  -2.5415890761609335e-02  -2.2836781043423904e-02  -2.0039548961049918e-02  -1.7128470523336652e-02  -1.4205838852568511e-02  -1.1368125580012725e-02  -8.7024271494618548e-03  -6.2833313886540062e-03  -4.1703229625058881e-03  -2.4058250335541485e-03  -1.0139494474294939e-03  -3.9838958151744052e-15  6.4925610288183127e-04  9.6456348279896236e-04  9.9244482456639681e-04  7.9283012492440048e-04  4.3614595338121125e-04  0.0000000000000000e+00  0.0000000000000000e+00  -5.4615783399171603e-03  -1.0778697720348861e-02  -1.5815199964051011e-02  -2.0444540222676562e-02  -2.4553861838759863e-02  -2.8047695216097315e-02  -3.0851021062697978e-02  -3.2911583050692639e-02  -3.4201364112548871e-02  -3.4717173183366923e-02  -3.4480323654046727e-02  -3.3535419737103854e-02  -3.1948301056313612e-02  -2.9803227794472628e-02  -2.7199417484916978e-02  -2.4247068940189753e-02  -2.1063027960307547e-02  -1.7766262633465785e-02  -1.4473322739272973e-02  -1.1293957740574154e-02  -8.3270611134493820e-03  -5.6570955821194811e-03  -3.3511347095639501e-03  -1.4566319864466363e-03  -4.8313361933955122e-15  1.0139494474207134e-03  1.6016870428695964e-03  1.7997865439699939e-03  1.6629348987192332e-03  1.2612142204012449e-03  6.7676643358001811e-04  0.0000000000000000e+00  0.0000000000000000e+00  -5.8563775119952755e-03  -1.1555238788516269e-02  -1.6946871472846729e-02  -2.1892212971277490e-02  -2.6267385332138661e-02  -2.9967805235201983e-02  -3.2911583050692167e-02  -3.5042084712032427e-02  -3.6329562035831778e-02  -3.6771792885159013e-02  -3.6393710598503784e-02  -3.5246040832653869e-02  -3.3403001878902341e-02  -3.0959160160100054e-02  -2.8025564650379385e-02  -2.4725311168505251e-02  -2.1188708850934622e-02  -1.7548235804761204e-02  -1.3933478420240914e-02  -1.0466248809528914e-02  -7.2560673414358021e-03  -4.3961825571190785e-03  -1.9602794500154551e-03  -5.4919567102371458e-15  1.4566319864363236e-03  2.4058250335447619e-03  2.8676539650845461e-03  2.8847327225107067e-03  2.5199825396641645e-03  1.8535872590345701e-03  9.7925930642356676e-04  0.0000000000000000e+00  0.0000000000000000e+00  -6.1244742859745873e-03  -1.2080597478041740e-02  -1.7707242805988933e-02  -2.2854843082354137e-02  -2.7390336551781143e-02  -3.1201643431595229e-02  -3.4201364112547802e-02  -3.6329562035831153e-02  -3.7555528939291274e-02  -3.7878468985945560e-02  -3.7327079617915072e-02  -3.5958049143370405e-02  -3.3853532401885392e-02  -3.1117704764055780e-02  -2.7872529711630813e-02  -2.4252904978618761e-02  -2.0401375579379131e-02  -1.6462618119456013e-02  -1.2577908970570491e-02  -8.8797888867585169e-03  -5.4871284522390769e-03  -2.5007827053028764e-03  -5.8892317583690310e-15  1.9602794500040632e-03  3.3511347095532286e-03  4.1703229624961086e-03  4.4418650906179174e-03  4.2145788216113172e-03  3.5596212429703589e-03  2.5671410390346390e-03  1.3421754756133427e-03  0.0000000000000000e+00  0.0000000000000000e+00  -6.2648089244375805e-03  -1.2352716202866102e-02  -1.8093411534816660e-02  -2.3328922431346825e-02  -2.7918917850943931e-02  -3.1745502382753116e-02  -3.4717173183365126e-02  -3.6771792885157618e-02  -3.7878468985944755e-02  -3.8038271871357651e-02  -3.7283767940330600e-02  -3.5677389539125873e-02  -3.3308707785984729e-02  -3.0290716163575412e-02  -2.6755270358139606e-02  -2.2847861788949105e-02  -1.8721927375843096e-02  -1.4532915377892619e-02  -1.0432335945351024e-02  -6.5620250285879818e-03  -3.0488414886958629e-03  -5.9670030675175616e-15  2.5007827052909944e-03  4.3961825571075443e-03  5.6570955821085931e-03  6.2833313886440523e-03  6.3031501620822925e-03  5.7716655940370284e-03  4.7681802387825470e-03  3.3925612672769663e-03  1.7608018715404706e-03  0.0000000000000000e+00  0.0000000000000000e+00  -6.2801747272711256e-03  -1.2377199408816184e-02  -1.8113856980340889e-02  -2.3325910389909006e-02  -2.7867707722196884e-02  -3.1617241985167535e-02  -3.4480323654044076e-02  -3.6393710598501480e-02  -3.7327079617913331e-02  -3.7283767940329643e-02  -3.6300259976606991e-02  -3.4444442524534602e-02  -3.1812698621937814e-02  -2.8525954529784958e-02  -2.4724834176239566e-02  -2.0564109276489370e-02  -1.6206659960138946e-02  -1.1817179068568476e-02  -7.5558626292663317e-03  -3.5723290191450414e-03  -5.6939260127255386e-15  3.0488414886841648e-03  5.4871284522273658e-03  7.2560673414243833e-03  8.3270611134385660e-03  8.7024271494519356e-03  8.4148861357509815e-03  7.5258457157727828e-03  6.1225494737080915e-03  4.3142058123205665e-03  2.2272508394387660e-03  0.0000000000000000e+00  0.0000000000000000e+00  -6.1770361983179770e-03  -1.2166951057572730e-02  -1.7787898734221409e-02  -2.2871516238790295e-02  -2.7268771437408738e-02  -3.0855234234553219e-02  -3.3535419737100267e-02  -3.5246040832650545e-02  -3.5958049143367588e-02  -3.5677389539123805e-02  -3.4444442524533478e-02  -3.2332178948257809e-02  -2.9443100676412957e-02  -2.5905087221664083e-02  -2.1866310036246138e-02  -1.7489411653457704e-02  -1.2945174733829279e-02  -8.4059252693699411e-03  -4.0389239871713150e-03  -5.0690321227359967e-15  3.5723290191342376e-03  6.5620250285767876e-03  8.8797888867472342e-03  1.0466248809517853e-02  1.1293957740563630e-02  1.1368125580003040e-02  1.0726061263289947e-02  9.4353496643029312e-03  7.5908372872962957e-03  5.3105468229343970e-03  2.7306820949525908e-03  0.0000000000000000e+00  0.0000000000000000e+00  -5.9652155093072754e-03  -1.1741550393333945e-02  -1.7144766633885228e-02  -2.2004470589846049e-02  -2.6170143675602251e-02  -2.9516569397776478e-02  -3.1948301056309025e-02  -3.3403001878897928e-02  -3.3853532401881409e-02  -3.3308707785981426e-02  -3.1812698621935434e-02  -2.9443100676411687e-02  -2.6307749948295454e-02  -2.2540407383287487e-02  -1.8295480779877259e-02  -1.3741988147987532e-02  -9.0569956392638935e-03  -4.4187830458557956e-03  -4.1187246084600575e-15  4.0389239871620871e-03  7.5558626292563554e-03  1.0432335945340574e-02  1.2577908970559867e-02  1.3933478420230429e-02  1.4473322739262943e-02  1.4205838852559244e-02  1.3172939745378497e-02  1.1448138787379672e-02  9.1333974746972760e-03  6.3548610450775951e-03  3.2576493804327041e-03  0.0000000000000000e+00  0.0000000000000000e+00  -5.6574604844114966e-03  -1.1126392085470147e-02  -1.6222320638307502e-02  -2.0774836072177859e-02  -2.4633744666052313e-02  -2.7674595818844253e-02  -2.9803227794467004e-02  -3.0959160160094500e-02  -3.1117704764050572e-02  -3.0290716163570819e-02  -2.8525954529781232e-02  -2.5905087221661439e-02  -2.2540407383286096e-02  -1.8570397067884527e-02  -1.4154306633407516e-02  -9.4659597825714654e-03  -4.6870231867529987e-03  -2.8982001804737922e-15  4.4187830458487483e-03  8.4059252693618278e-03  1.1817179068559534e-02  1.4532915377883118e-02  1.6462618119446246e-02  1.7548235804751490e-02  1.7766262633456431e-02  1.7128470523327961e-02  1.5681265598415227e-02  1.3503695753654250e-02  1.0704187958683612e-02  7.4161429576741437e-03  3.7925590796897592e-03  0.0000000000000000e+00  0.0000000000000000e+00  -5.2689115720650024e-03  -1.0351625392237784e-02  -1.5065471945630425e-02  -1.9241924711174536e-02  -2.2732812660703025e-02  -2.5415890761603003e-02  -2.7199417484910317e-02  -2.8025564650372686e-02  -2.7872529711624371e-02  -2.6755270358133701e-02  -2.4724834176234459e-02  -2.1866310036242065e-02  -1.8295480779874407e-02  -1.4154306633406040e-02  -9.6054136461041495e-03  -4.8257996214360627e-03  -1.4840414726225709e-15  4.6870231867485943e-03  9.0569956392581828e-03  1.2945174733822434e-02  1.6206659960131202e-02  1.8721927375834703e-02  2.0401375579370388e-02  2.1188708850925830e-02  2.1063027960299012e-02  2.0039548961041934e-02  1.8168923162938569e-02  1.5535185362897365e-02  1.2252410242880662e-02  8.4602065798328498e-03  4.3182236447221259e-03  0.0000000000000000e+00  0.0000000000000000e+00  -4.8164889305796609e-03  -9.4509343258035519e-03  -1.3724367694731492e-02  -1.7471904029768205e-02  -2.0548953619117710e-02  -2.2836781043416687e-02  -2.4247068940182095e-02  -2.4725311168497445e-02  -2.4252904978611108e-02  -2.2847861788941902e-02  -2.0564109276482889e-02  -1.7489411653452195e-02  -1.3741988147983200e-02  -9.4659597825684817e-03  -4.8257996214345414e-03  3.1196969372080559e-17  4.8257996214346030e-03  9.4659597825685407e-03  1.3741988147983256e-02  1.7489411653452240e-02  2.0564109276482931e-02  2.2847861788941947e-02  2.4252904978611160e-02  2.4725311168497500e-02  2.4247068940182144e-02  2.2836781043416732e-02  2.0548953619117745e-02  1.7471904029768236e-02  1.3724367694731520e-02  9.4509343258035710e-03  4.8164889305796696e-03  0.0000000000000000e+00  0.0000000000000000e+00  -4.3182236447221155e-03  -8.4602065798328324e-03  -1.2252410242880638e-02  -1.5535185362897337e-02  -1.8168923162938534e-02  -2.0039548961041896e-02  -2.1063027960298967e-02  -2.1188708850925782e-02  -2.0401375579370343e-02  -1.8721927375834658e-02  -1.6206659960131153e-02  -1.2945174733822380e-02  -9.0569956392581204e-03  -4.6870231867485335e-03  1.5459354994930889e-15  4.8257996214361235e-03  9.6054136461042067e-03  1.4154306633406092e-02  1.8295480779874453e-02  2.1866310036242093e-02  2.4724834176234483e-02  2.6755270358133743e-02  2.7872529711624426e-02  2.8025564650372748e-02  2.7199417484910372e-02  2.5415890761603048e-02  2.2732812660703063e-02  1.9241924711174571e-02  1.5065471945630453e-02  1.0351625392237801e-02  5.2689115720650128e-03  0.0000000000000000e+00  0.0000000000000000e+00  -3.7925590796897505e-03  -7.4161429576741281e-03  -1.0704187958683591e-02  -1.3503695753654225e-02  -1.5681265598415199e-02  -1.7128470523327926e-02  -1.7766262633456396e-02  -1.7548235804751455e-02  -1.6462618119446215e-02  -1.4532915377883074e-02  -1.1817179068559482e-02  -8.4059252693617706e-03  -4.4187830458486850e-03  2.9616372406403013e-15  4.6870231867530612e-03  9.4659597825715279e-03  1.4154306633407571e-02  1.8570397067884575e-02  2.2540407383286130e-02  2.5905087221661467e-02  2.8525954529781263e-02  3.0290716163570867e-02  3.1117704764050631e-02  3.0959160160094562e-02  2.9803227794467063e-02  2.7674595818844305e-02  2.4633744666052351e-02  2.0774836072177890e-02  1.6222320638307530e-02  1.1126392085470165e-02  5.6574604844115070e-03  0.0000000000000000e+00  0.0000000000000000e+00  -3.2576493804326962e-03  -6.3548610450775804e-03  -9.1333974746972552e-03  -1.1448138787379648e-02  -1.3172939745378471e-02  -1.4205838852559213e-02  -1.4473322739262912e-02  -1.3933478420230395e-02  -1.2577908970559829e-02  -1.0432335945340529e-02  -7.5558626292563016e-03  -4.0389239871620282e-03  4.1817883992360678e-15  4.4187830458558624e-03  9.0569956392639595e-03  1.3741988147987595e-02  1.8295480779877315e-02  2.2540407383287529e-02  2.6307749948295489e-02  2.9443100676411711e-02  3.1812698621935476e-02  3.3308707785981481e-02  3.3853532401881478e-02  3.3403001878897998e-02  3.1948301056309081e-02  2.9516569397776526e-02  2.6170143675602293e-02  2.2004470589846080e-02  1.7144766633885252e-02  1.1741550393333964e-02  5.9652155093072850e-03  0.0000000000000000e+00  0.0000000000000000e+00  -2.7306820949525839e-03  -5.3105468229343840e-03  -7.5908372872962766e-03  -9.4353496643029069e-03  -1.0726061263289920e-02  -1.1368125580003007e-02  -1.1293957740563593e-02  -1.0466248809517811e-02  -8.8797888867471891e-03  -6.5620250285767390e-03  -3.5723290191341820e-03  5.1291668058721633e-15  4.0389239871713792e-03  8.4059252693700071e-03  1.2945174733829341e-02  1.7489411653457763e-02  2.1866310036246193e-02  2.5905087221664121e-02  2.9443100676412988e-02  3.2332178948257843e-02  3.4444442524533520e-02  3.5677389539123860e-02  3.5958049143367671e-02  3.5246040832650621e-02  3.3535419737100336e-02  3.0855234234553271e-02  2.7268771437408780e-02  2.2871516238790326e-02  1.7787898734221434e-02  1.2166951057572747e-02  6.1770361983179865e-03  0.0000000000000000e+00  0.0000000000000000e+00  -2.2272508394387586e-03  -4.3142058123205526e-03  -6.1225494737080716e-03  -7.5258457157727568e-03  -8.4148861357509503e-03  -8.7024271494519009e-03  -8.3270611134385261e-03  -7.2560673414243399e-03  -5.4871284522273189e-03  -3.0488414886841136e-03  5.7499578072201935e-15  3.5723290191451021e-03  7.5558626292663977e-03  1.1817179068568540e-02  1.6206659960139008e-02  2.0564109276489426e-02  2.4724834176239611e-02  2.8525954529785003e-02  3.1812698621937863e-02  3.4444442524534651e-02  3.6300259976607054e-02  3.7283767940329712e-02  3.7327079617913400e-02  3.6393710598501564e-02  3.4480323654044145e-02  3.1617241985167577e-02  2.7867707722196912e-02  2.3325910389909027e-02  1.8113856980340910e-02  1.2377199408816198e-02  6.2801747272711352e-03  0.0000000000000000e+00  0.0000000000000000e+00  -1.7608018715404637e-03  -3.3925612672769528e-03  -4.7681802387825262e-03  -5.7716655940370032e-03  -6.3031501620822604e-03  -6.2833313886440168e-03  -5.6570955821085549e-03  -4.3961825571075010e-03  -2.5007827052909463e-03  6.0186704141406113e-15  3.0488414886959189e-03  6.5620250285880408e-03  1.0432335945351087e-02  1.4532915377892679e-02  1.8721927375843155e-02  2.2847861788949164e-02  2.6755270358139654e-02  3.0290716163575461e-02  3.3308707785984784e-02  3.5677389539125942e-02  3.7283767940330670e-02  3.8038271871357721e-02  3.7878468985944824e-02  3.6771792885157688e-02  3.4717173183365174e-02  3.1745502382753144e-02  2.7918917850943956e-02  2.3328922431346839e-02  1.8093411534816667e-02  1.2352716202866114e-02  6.2648089244375874e-03  0.0000000000000000e+00  0.0000000000000000e+00  -1.3421754756133360e-03  -2.5671410390346256e-03  -3.5596212429703398e-03  -4.2145788216112921e-03  -4.4418650906178888e-03  -4.1703229624960756e-03  -3.3511347095531900e-03  -1.9602794500040203e-03  5.9363261472186483e-15  2.5007827053029272e-03  5.4871284522391315e-03  8.8797888867585724e-03  1.2577908970570550e-02  1.6462618119456068e-02  2.0401375579379193e-02  2.4252904978618820e-02  2.7872529711630865e-02  3.1117704764055839e-02  3.3853532401885461e-02  3.5958049143370474e-02  3.7327079617915135e-02  3.7878468985945622e-02  3.7555528939291323e-02  3.6329562035831195e-02  3.4201364112547830e-02  3.1201643431595247e-02  2.7390336551781157e-02  2.2854843082354144e-02  1.7707242805988933e-02  1.2080597478041749e-02  6.1244742859745951e-03  0.0000000000000000e+00  0.0000000000000000e+00  -9.7925930642356026e-04  -1.8535872590345575e-03  -2.5199825396641463e-03  -2.8847327225106838e-03  -2.8676539650845188e-03  -2.4058250335447294e-03  -1.4566319864362872e-03  5.5329851140859351e-15  1.9602794500154998e-03  4.3961825571191271e-03  7.2560673414358533e-03  1.0466248809528967e-02  1.3933478420240975e-02  1.7548235804761263e-02  2.1188708850934677e-02  2.4725311168505307e-02  2.8025564650379434e-02  3.0959160160100103