<?xml version="1.0"?>
<VTKFile type="UnstructuredGrid"  version="0.1"  >
<UnstructuredGrid>
<Piece  NumberOfPoints="1089" NumberOfCells="2048">
<Points>
<DataArray  type="Float64"  NumberOfComponents="3"  format="ascii">0 0 0  0.03125 0 0  0.0625 0 0  0.09375 0 0  0.125 0 0  0.15625 0 0  0.1875 0 0  0.21875 0 0  0.25 0 0  0.28125 0 0  0.3125 0 0  0.34375 0 0  0.375 0 0  0.40625 0 0  0.4375 0 0  0.46875 0 0  0.5 0 0  0.53125 0 0  0.5625 0 0  0.59375 0 0  0.625 0 0  0.65625 0 0  0.6875 0 0  0.71875 0 0  0.75 0 0  0.78125 0 0  0.8125 0 0  0.84375 0 0  0.875 0 0  0.90625 0 0  0.9375 0 0  0.96875 0 0  1 0 0  0 0.03125 0  0.03125 0.03125 0  0.0625 0.03125 0  0.09375 0.03125 0  0.125 0.03125 0  0.15625 0.03125 0  0.1875 0.03125 0  0.21875 0.03125 0  0.25 0.03125 0  0.28125 0.03125 0  0.3125 0.03125 0  0.34375 0.03125 0  0.375 0.03125 0  0.40625 0.03125 0  0.4375 0.03125 0  0.46875 0.03125 0  0.5 0.03125 0  0.53125 0.03125 0  0.5625 0.03125 0  0.59375 0.03125 0  0.625 0.03125 0  0.65625 0.03125 0  0.6875 0.03125 0  0.71875 0.03125 0  0.75 0.03125 0  0.78125 0.03125 0  0.8125 0.03125 0  0.84375 0.03125 0  0.875 0.03125 0  0.90625 0.03125 0  0.9375 0.03125 0  0.96875 0.03125 0  1 0.03125 0  0 0.0625 0  0.03125 0.0625 0  0.0625 0.0625 0  0.09375 0.0625 0  0.125 0.0625 0  0.15625 0.0625 0  0.1875 0.0625 0  0.21875 0.0625 0  0.25 0.0625 0  0.28125 0.0625 0  0.3125 0.0625 0  0.34375 0.0625 0  0.375 0.0625 0  0.40625 0.0625 0  0.4375 0.0625 0  0.46875 0.0625 0  0.5 0.0625 0  0.53125 0.0625 0  0.5625 0.0625 0  0.59375 0.0625 0  0.625 0.0625 0  0.65625 0.0625 0  0.6875 0.0625 0  0.71875 0.0625 0  0.75 0.0625 0  0.78125 0.0625 0  0.8125 0.0625 0  0.84375 0.0625 0  0.875 0.0625 0  0.90625 0.0625 0  0.9375 0.0625 0  0.96875 0.0625 0  1 0.0625 0  0 0.09375 0  0.03125 0.09375 0  0.0625 0.09375 0  0.09375 0.09375 0  0.125 0.09375 0  0.15625 0.09375 0  0.1875 0.09375 0  0.21875 0.09375 0  0.25 0.09375 0  0.28125 0.09375 0  0.3125 0.09375 0  0.34375 0.09375 0  0.375 0.09375 0  0.40625 0.09375 0  0.4375 0.09375 0  0.46875 0.09375 0  0.5 0.09375 0  0.53125 0.09375 0  0.5625 0.09375 0  0.59375 0.09375 0  0.625 0.09375 0  0.65625 0.09375 0  0.6875 0.09375 0  0.71875 0.09375 0  0.75 0.09375 0  0.78125 0.09375 0  0.8125 0.09375 0  0.84375 0.09375 0  0.875 0.09375 0  0.90625 0.09375 0  0.9375 0.09375 0  0.96875 0.09375 0  1 0.09375 0  0 0.125 0  0.03125 0.125 0  0.0625 0.125 0  0.09375 0.125 0  0.125 0.125 0  0.15625 0.125 0  0.1875 0.125 0  0.21875 0.125 0  0.25 0.125 0  0.28125 0.125 0  0.3125 0.125 0  0.34375 0.125 0  0.375 0.125 0  0.40625 0.125 0  0.4375 0.125 0  0.46875 0.125 0  0.5 0.125 0  0.53125 0.125 0  0.5625 0.125 0  0.59375 0.125 0  0.625 0.125 0  0.65625 0.125 0  0.6875 0.125 0  0.71875 0.125 0  0.75 0.125 0  0.78125 0.125 0  0.8125 0.125 0  0.84375 0.125 0  0.875 0.125 0  0.90625 0.125 0  0.9375 0.125 0  0.96875 0.125 0  1 0.125 0  0 0.15625 0  0.03125 0.15625 0  0.0625 0.15625 0  0.09375 0.15625 0  0.125 0.15625 0  0.15625 0.15625 0  0.1875 0.15625 0  0.21875 0.15625 0  0.25 0.15625 0  0.28125 0.15625 0  0.3125 0.15625 0  0.34375 0.15625 0  0.375 0.15625 0  0.40625 0.15625 0  0.4375 0.15625 0  0.46875 0.15625 0  0.5 0.15625 0  0.53125 0.15625 0  0.5625 0.15625 0  0.59375 0.15625 0  0.625 0.15625 0  0.65625 0.15625 0  0.6875 0.15625 0  0.71875 0.15625 0  0.75 0.15625 0  0.78125 0.15625 0  0.8125 0.15625 0  0.84375 0.15625 0  0.875 0.15625 0  0.90625 0.15625 0  0.9375 0.15625 0  0.96875 0.15625 0  1 0.15625 0  0 0.1875 0  0.03125 0.1875 0  0.0625 0.1875 0  0.09375 0.1875 0  0.125 0.1875 0  0.15625 0.1875 0  0.1875 0.1875 0  0.21875 0.1875 0  0.25 0.1875 0  0.28125 0.1875 0  0.3125 0.1875 0  0.34375 0.1875 0  0.375 0.1875 0  0.40625 0.1875 0  0.4375 0.1875 0  0.46875 0.1875 0  0.5 0.1875 0  0.53125 0.1875 0  0.5625 0.1875 0  0.59375 0.1875 0  0.625 0.1875 0  0.65625 0.1875 0  0.6875 0.1875 0  0.71875 0.1875 0  0.75 0.1875 0  0.78125 0.1875 0  0.8125 0.1875 0  0.84375 0.1875 0  0.875 0.1875 0  0.90625 0.1875 0  0.9375 0.1875 0  0.96875 0.1875 0  1 0.1875 0  0 0.21875 0  0.03125 0.21875 0  0.0625 0.21875 0  0.09375 0.21875 0  0.125 0.21875 0  0.15625 0.21875 0  0.1875 0.21875 0  0.21875 0.21875 0  0.25 0.21875 0  0.28125 0.21875 0  0.3125 0.21875 0  0.34375 0.21875 0  0.375 0.21875 0  0.40625 0.21875 0  0.4375 0.21875 0  0.46875 0.21875 0  0.5 0.21875 0  0.53125 0.21875 0  0.5625 0.21875 0  0.59375 0.21875 0  0.625 0.21875 0  0.65625 0.21875 0  0.6875 0.21875 0  0.71875 0.21875 0  0.75 0.21875 0  0.78125 0.21875 0  0.8125 0.21875 0  0.84375 0.21875 0  0.875 0.21875 0  0.90625 0.21875 0  0.9375 0.21875 0  0.96875 0.21875 0  1 0.21875 0  0 0.25 0  0.03125 0.25 0  0.0625 0.25 0  0.09375 0.25 0  0.125 0.25 0  0.15625 0.25 0  0.1875 0.25 0  0.21875 0.25 0  0.25 0.25 0  0.28125 0.25 0  0.3125 0.25 0  0.34375 0.25 0  0.375 0.25 0  0.40625 0.25 0  0.4375 0.25 0  0.46875 0.25 0  0.5 0.25 0  0.53125 0.25 0  0.5625 0.25 0  0.59375 0.25 0  0.625 0.25 0  0.65625 0.25 0  0.6875 0.25 0  0.71875 0.25 0  0.75 0.25 0  0.78125 0.25 0  0.8125 0.25 0  0.84375 0.25 0  0.875 0.25 0  0.90625 0.25 0  0.9375 0.25 0  0.96875 0.25 0  1 0.25 0  0 0.28125 0  0.03125 0.28125 0  0.0625 0.28125 0  0.09375 0.28125 0  0.125 0.28125 0  0.15625 0.28125 0  0.1875 0.28125 0  0.21875 0.28125 0  0.25 0.28125 0  0.28125 0.28125 0  0.3125 0.28125 0  0.34375 0.28125 0  0.375 0.28125 0  0.40625 0.28125 0  0.4375 0.28125 0  0.46875 0.28125 0  0.5 0.28125 0  0.53125 0.28125 0  0.5625 0.28125 0  0.59375 0.28125 0  0.625 0.28125 0  0.65625 0.28125 0  0.6875 0.28125 0  0.71875 0.28125 0  0.75 0.28125 0  0.78125 0.28125 0  0.8125 0.28125 0  0.84375 0.28125 0  0.875 0.28125 0  0.90625 0.28125 0  0.9375 0.28125 0  0.96875 0.28125 0  1 0.28125 0  0 0.3125 0  0.03125 0.3125 0  0.0625 0.3125 0  0.09375 0.3125 0  0.125 0.3125 0  0.15625 0.3125 0  0.1875 0.3125 0  0.21875 0.3125 0  0.25 0.3125 0  0.28125 0.3125 0  0.3125 0.3125 0  0.34375 0.3125 0  0.375 0.3125 0  0.40625 0.3125 0  0.4375 0.3125 0  0.46875 0.3125 0  0.5 0.3125 0  0.53125 0.3125 0  0.5625 0.3125 0  0.59375 0.3125 0  0.625 0.3125 0  0.65625 0.3125 0  0.6875 0.3125 0  0.71875 0.3125 0  0.75 0.3125 0  0.78125 0.3125 0  0.8125 0.3125 0  0.84375 0.3125 0  0.875 0.3125 0  0.90625 0.3125 0  0.9375 0.3125 0  0.96875 0.3125 0  1 0.3125 0  0 0.34375 0  0.03125 0.34375 0  0.0625 0.34375 0  0.09375 0.34375 0  0.125 0.34375 0  0.15625 0.34375 0  0.1875 0.34375 0  0.21875 0.34375 0  0.25 0.34375 0  0.28125 0.34375 0  0.3125 0.34375 0  0.34375 0.34375 0  0.375 0.34375 0  0.40625 0.34375 0  0.4375 0.34375 0  0.46875 0.34375 0  0.5 0.34375 0  0.53125 0.34375 0  0.5625 0.34375 0  0.59375 0.34375 0  0.625 0.34375 0  0.65625 0.34375 0  0.6875 0.34375 0  0.71875 0.34375 0  0.75 0.34375 0  0.78125 0.34375 0  0.8125 0.34375 0  0.84375 0.34375 0  0.875 0.34375 0  0.90625 0.34375 0  0.9375 0.34375 0  0.96875 0.34375 0  1 0.34375 0  0 0.375 0  0.03125 0.375 0  0.0625 0.375 0  0.09375 0.375 0  0.125 0.375 0  0.15625 0.375 0  0.1875 0.375 0  0.21875 0.375 0  0.25 0.375 0  0.28125 0.375 0  0.3125 0.375 0  0.34375 0.375 0  0.375 0.375 0  0.40625 0.375 0  0.4375 0.375 0  0.46875 0.375 0  0.5 0.375 0  0.53125 0.375 0  0.5625 0.375 0  0.59375 0.375 0  0.625 0.375 0  0.65625 0.375 0  0.6875 0.375 0  0.71875 0.375 0  0.75 0.375 0  0.78125 0.375 0  0.8125 0.375 0  0.84375 0.375 0  0.875 0.375 0  0.90625 0.375 0  0.9375 0.375 0  0.96875 0.375 0  1 0.375 0  0 0.40625 0  0.03125 0.40625 0  0.0625 0.40625 0  0.09375 0.40625 0  0.125 0.40625 0  0.15625 0.40625 0  0.1875 0.40625 0  0.21875 0.40625 0  0.25 0.40625 0  0.28125 0.40625 0  0.3125 0.40625 0  0.34375 0.40625 0  0.375 0.40625 0  0.40625 0.40625 0  0.4375 0.40625 0  0.46875 0.40625 0  0.5 0.40625 0  0.53125 0.40625 0  0.5625 0.40625 0  0.59375 0.40625 0  0.625 0.40625 0  0.65625 0.40625 0  0.6875 0.40625 0  0.71875 0.40625 0  0.75 0.40625 0  0.78125 0.40625 0  0.8125 0.40625 0  0.84375 0.40625 0  0.875 0.40625 0  0.90625 0.40625 0  0.9375 0.40625 0  0.96875 0.40625 0  1 0.40625 0  0 0.4375 0  0.03125 0.4375 0  0.0625 0.4375 0  0.09375 0.4375 0  0.125 0.4375 0  0.15625 0.4375 0  0.1875 0.4375 0  0.21875 0.4375 0  0.25 0.4375 0  0.28125 0.4375 0  0.3125 0.4375 0  0.34375 0.4375 0  0.375 0.4375 0  0.40625 0.4375 0  0.4375 0.4375 0  0.46875 0.4375 0  0.5 0.4375 0  0.53125 0.4375 0  0.5625 0.4375 0  0.59375 0.4375 0  0.625 0.4375 0  0.65625 0.4375 0  0.6875 0.4375 0  0.71875 0.4375 0  0.75 0.4375 0  0.78125 0.4375 0  0.8125 0.4375 0  0.84375 0.4375 0  0.875 0.4375 0  0.90625 0.4375 0  0.9375 0.4375 0  0.96875 0.4375 0  1 0.4375 0  0 0.46875 0  0.03125 0.46875 0  0.0625 0.46875 0  0.09375 0.46875 0  0.125 0.46875 0  0.15625 0.46875 0  0.1875 0.46875 0  0.21875 0.46875 0  0.25 0.46875 0  0.28125 0.46875 0  0.3125 0.46875 0  0.34375 0.46875 0  0.375 0.46875 0  0.40625 0.46875 0  0.4375 0.46875 0  0.46875 0.46875 0  0.5 0.46875 0  0.53125 0.46875 0  0.5625 0.46875 0  0.59375 0.46875 0  0.625 0.46875 0  0.65625 0.46875 0  0.6875 0.46875 0  0.71875 0.46875 0  0.75 0.46875 0  0.78125 0.46875 0  0.8125 0.46875 0  0.84375 0.46875 0  0.875 0.46875 0  0.90625 0.46875 0  0.9375 0.46875 0  0.96875 0.46875 0  1 0.46875 0  0 0.5 0  0.03125 0.5 0  0.0625 0.5 0  0.09375 0.5 0  0.125 0.5 0  0.15625 0.5 0  0.1875 0.5 0  0.21875 0.5 0  0.25 0.5 0  0.28125 0.5 0  0.3125 0.5 0  0.34375 0.5 0  0.375 0.5 0  0.40625 0.5 0  0.4375 0.5 0  0.46875 0.5 0  0.5 0.5 0  0.53125 0.5 0  0.5625 0.5 0  0.59375 0.5 0  0.625 0.5 0  0.65625 0.5 0  0.6875 0.5 0  0.71875 0.5 0  0.75 0.5 0  0.78125 0.5 0  0.8125 0.5 0  0.84375 0.5 0  0.875 0.5 0  0.90625 0.5 0  0.9375 0.5 0  0.96875 0.5 0  1 0.5 0  0 0.53125 0  0.03125 0.53125 0  0.0625 0.53125 0  0.09375 0.53125 0  0.125 0.53125 0  0.15625 0.53125 0  0.1875 0.53125 0  0.21875 0.53125 0  0.25 0.53125 0  0.28125 0.53125 0  0.3125 0.53125 0  0.34375 0.53125 0  0.375 0.53125 0  0.40625 0.53125 0  0.4375 0.53125 0  0.46875 0.53125 0  0.5 0.53125 0  0.53125 0.53125 0  0.5625 0.53125 0  0.59375 0.53125 0  0.625 0.53125 0  0.65625 0.53125 0  0.6875 0.53125 0  0.71875 0.53125 0  0.75 0.53125 0  0.78125 0.531
[...]
<PointData  Scalars="phi"> 
<DataArray  type="Float64"  Name="phi"  format="ascii">0.0000000000000000e+00  0.0000000000000000e+00  0.0000000000000000e+00  0.0000000000000000e+00  0.0000000000000000e+00  0.0000000000000000e+00  0.0000000000000000e+00  0.0000000000000000e+00  0.0000000000000000e+00  0.0000000000000000e+00  0.0000000000000000e+00  0.0000000000000000e+00  0.0000000000000000e+00  0.0000000000000000e+00  0.0000000000000000e+00  0.0000000000000000e+00  0.0000000000000000e+00  0.0000000000000000e+00  0.0000000000000000e+00  0.0000000000000000e+00  0.0000000000000000e+00  0.0000000000000000e+00  0.0000000000000000e+00  0.0000000000000000e+00  0.0000000000000000e+00  0.0000000000000000e+00  0.0000000000000000e+00  0.0000000000000000e+00  0.0000000000000000e+00  0.0000000000000000e+00  0.0000000000000000e+00  0.0000000000000000e+00  0.0000000000000000e+00  0.0000000000000000e+00  -8.4106079730422030e-06  -1.6652332528526761e-05  -2.4509592444999653e-05  -3.1792108393390695e-05  -3.8331382369116129e-05  -4.3984505813556449e-05  -4.8637868934202561e-05  -5.2210151313954954e-05  -5.4654299082877464e-05  -5.5958340988059507e-05  -5.6144982811545996e-05  -5.5269984439455141e-05  -5.3419378582235627e-05  -5.0705638172804596e-05  -4.7262941283405843e-05  -4.3241717416523691e-05  -3.8802686378660694e-05  -3.4110619832541423e-05  -2.9328065449928125e-05  -2.4609274051340873e-05  -2.0094561246781876e-05  -1.5905317248847128e-05  -1.2139852412349294e-05  -8.8702326620195092e-06  -6.1402195609527612e-06  -3.9643858044115304e-06  -2.3284299666966957e-06  -1.1906659394995251e-06  -4.8461399998681842e-07  -1.2257245171290170e-07  -1.9057914047873705e-18  0.0000000000000000e+00  0.0000000000000000e+00  -1.6652332528526720e-05  -3.2965658539580594e-05  -4.8508923194066255e-05  -6.2907336301504954e-05  -7.5827539730322465e-05  -8.6986423455947794e-05  -9.6158934995606109e-05  -1.0318418859270786e-04  -1.0796945937129485e-04  -1.1049182714084260e-04  -1.1079737091819792e-04  -1.0899793143763473e-04  -1.0526556302317163e-04  -9.9824889927780378e-05  -9.2943664709734447e-05  -8.4921895584871653e-05  -7.6079963989861420e-05  -6.6746191103634505e-05  -5.7244331573518882e-05  -4.7881473556561313e-05  -3.8936806458719081e-05  -3.0651682161408485e-05  -2.3221343454490454e-05  -1.6788626843667880e-05  -1.1439868388960922e-05  -7.2031536886554134e-06  -4.0489597371149124e-06  -1.8931403991260667e-06  -6.0211166750010667e-07  -7.4864189847264577e-18  1.2257245170534653e-07  0.0000000000000000e+00  0.0000000000000000e+00  -2.4509592444999504e-05  -4.8508923194066065e-05  -7.1358350162345385e-05  -9.2507276571777931e-05  -1.1146432289809981e-04  -1.2781179321512715e-04  -1.4121782881571385e-04  -1.5144571356675795e-04  -1.5835990123332794e-04  -1.6192848889719723e-04  -1.6222202036122310e-04  -1.5940865910099843e-04  -1.5374591800783492e-04  -1.4556926945730100e-04  -1.3527808046854075e-04  -1.2331942020947696e-04  -1.1017036750522770e-04  -9.6319501593222345e-05  -8.2248288227752527e-05  -6.8413074403985059e-05  -5.5228378494984412e-05  -4.3052109550591140e-05  -3.2173271962323584e-05  -2.2802612635127988e-05  -1.5066550997754151e-05  -9.0046020330850804e-06  -4.5703638564861618e-06  -1.6359992547099992e-06  -1.6301031705897743e-17  6.0211166747801266e-07  4.8461399997566946e-07  0.0000000000000000e+00  0.0000000000000000e+00  -3.1792108393390316e-05  -6.2907336301504358e-05  -9.2507276571777416e-05  -1.1987497196880287e-04  -1.4436974826891188e-04  -1.6544697969878068e-04  -1.8267448630650182e-04  -1.9574498149971329e-04  -2.0448409376343658e-04  -2.0885364982055544e-04  -2.0895009302606050e-04  -2.0499810325265850e-04  -1.9733967271262604e-04  -1.8641906851171670e-04  -1.7276427081532454e-04  -1.5696560967712488e-04  -1.3965242903302670e-04  -1.2146867930751940e-04  -1.0304837789936190e-04  -8.4991878188566897e-05  -6.7843852677672292e-05  -5.2073825857286408e-05  -3.8059990097756605e-05  -2.6076907258284252e-05  -1.6287544772527536e-05  -8.7399235734708553e-06  -3.3684728379052271e-06  -2.7662985900347977e-17  1.6359992546675277e-06  1.8931403990972816e-06  1.1906659394849991e-06  0.0000000000000000e+00  0.0000000000000000e+00  -3.8331382369115370e-05  -7.5827539730321232e-05  -1.1146432289809840e-04  -1.4436974826891077e-04  -1.7376446514300059e-04  -1.9898640755768314e-04  -2.1951119694676096e-04  -2.3496758356735990e-04  -2.4514737032707475e-04  -2.5000946009986081e-04  -2.4967788906715943e-04  -2.4443393904457849e-04  -2.3470264921760469e-04  -2.2103426229425218e-04  -2.0408133323079224e-04  -1.8457239300266360e-04  -1.6328318919334544e-04  -1.4100661463629284e-04  -1.1852248166084378e-04  -9.6568300989306640e-05  -7.5812181036193359e-05  -5.6828876999689753e-05  -4.0079893073317359e-05  -2.5898380211323527e-05  -1.4479382340088143e-05  -5.8757729813858445e-06  -4.0693477435105724e-17  3.3684728378381201e-06  4.5703638564346368e-06  4.0489597370799892e-06  2.3284299666790711e-06  0.0000000000000000e+00  0.0000000000000000e+00  -4.3984505813555229e-05  -8.6986423455945571e-05  -1.2781179321512450e-04  -1.6544697969877813e-04  -1.9898640755768130e-04  -2.2766171647366012e-04  -2.5086588310152514e-04  -2.6817145429117688e-04  -2.7934224165335376e-04  -2.8433806593074586e-04  -2.8331239973345139e-04  -2.7660302625232144e-04  -2.6471609729250231e-04  -2.4830422509942800e-04  -2.2813946885266842e-04  -2.0508226951970949e-04  -1.8004753857518599e-04  -1.5396921112380483e-04  -1.2776462825798526e-04  -1.0230011502597398e-04  -7.8359069194967342e-05  -5.6613774095057065e-05  -3.7602000189020230e-05  -2.1709270378941077e-05  -9.1574407442642736e-06  -5.4387768346898723e-17  5.8757729812917443e-06  8.7399235733932382e-06  9.0046020330254798e-06  7.2031536886150082e-06  3.9643858043911381e-06  0.0000000000000000e+00  0.0000000000000000e+00  -4.8637868934200637e-05  -9.6158934995602585e-05  -1.4121782881570936e-04  -1.8267448630649710e-04  -2.1951119694675646e-04  -2.5086588310152243e-04  -2.7605962972418940e-04  -2.9461747422605719e-04  -3.0628171342851672e-04  -3.1101726227232931e-04  -3.0900889732108131e-04  -3.0065052482687788e-04  -2.8652691549966187e-04  -2.6738863382591864e-04  -2.4412114743192287e-04  -2.1770932148308816e-04  -1.8919867595198234e-04  -1.5965490313492439e-04  -1.3012320449607291e-04  -1.0158900745204014e-04  -7.4941564079206331e-05  -5.0941817240499326e-05  -3.0195749817669161e-05  -1.3134216171573558e-05  -6.7687081962337630e-17  9.1574407441428921e-06  1.4479382339983090e-05  1.6287544772440861e-05  1.5066550997687575e-05  1.1439868388915782e-05  6.1402195609299743e-06  0.0000000000000000e+00  0.0000000000000000e+00  -5.2210151313952162e-05  -1.0318418859270261e-04  -1.5144571356675088e-04  -1.9574498149970516e-04  -2.3496758356735166e-04  -2.6817145429116989e-04  -2.9461747422605301e-04  -3.1379255700869147e-04  -3.2542439102774013e-04  -3.2948731914257353e-04  -3.2619917394021206e-04  -3.1600922812379586e-04  -2.9957775626375939e-04  -2.7774802200024345e-04  -2.5151179136867924e-04  -2.2196971704961329e-04  -1.9028813055790828e-04  -1.5765391227915603e-04  -1.2522917774240435e-04  -9.4107519994190975e-05  -6.5273482401202504e-05  -3.9566806229472140e-05  -1.7652807976443153e-05  -7.9569692770112726e-17  1.3134216171426733e-05  2.1709270378809353e-05  2.5898380211209449e-05  2.6076907258190096e-05  2.2802612635055651e-05  1.6788626843618823e-05  8.8702326619947453e-06  0.0000000000000000e+00  0.0000000000000000e+00  -5.4654299082873602e-05  -1.0796945937128751e-04  -1.5835990123331796e-04  -2.0448409376342482e-04  -2.4514737032706229e-04  -2.7934224165334200e-04  -3.0628171342850712e-04  -3.2542439102773444e-04  -3.3649046382143411e-04  -3.3946800580458587e-04  -3.3460939556387954e-04  -3.2241803291549871e-04  -3.0362589743495271e-04  -2.7916284123874984e-04  -2.5011882125518535e-04  -2.1770054269277237e-04  -1.8318419517031039e-04  -1.4786610792546779e-04  -1.1301322510406885e-04  -7.9815303510662736e-05  -4.9340663360169108e-05  -2.2497180320662839e-05  -8.9140898273852066e-17  1.7652807976274631e-05  3.0195749817513551e-05  3.7602000188880545e-05  4.0079893073196315e-05  3.8059990097656642e-05  3.2173271962246741e-05  2.3221343454438338e-05  1.2139852412322975e-05  0.0000000000000000e+00  0.0000000000000000e+00  -5.5958340988054506e-05  -1.1049182714083293e-04  -1.6192848889718379e-04  -2.0885364982053928e-04  -2.5000946009984314e-04  -2.8433806593072808e-04  -3.1101726227231326e-04  -3.2948731914256096e-04  -3.3946800580457871e-04  -3.4096520851500283e-04  -3.3426693209397053e-04  -3.1992887843971380e-04  -2.9875019076692247e-04  -2.7174032550961934e-04  -2.4007835005643844e-04  -2.0506625077464926e-04  -1.6807806107280361e-04  -1.3050677486763949e-04  -9.3711090778894612e-05  -5.8964033623172782e-05  -2.7405422301742904e-05  -9.5644324401135711e-17  2.2497180320478030e-05  3.9566806229297225e-05  5.0941817240337644e-05  5.6613774094911755e-05  5.6828876999563769e-05  5.2073825857182297e-05  4.3052109550511085e-05  3.0651682161354194e-05  1.5905317248819704e-05  0.0000000000000000e+00  0.0000000000000000e+00  -5.6144982811539695e-05  -1.1079737091818578e-04  -1.6222202036120600e-04  -2.0895009302603963e-04  -2.4967788906713606e-04  -2.8331239973342705e-04  -3.0900889732105789e-04  -3.2619917394019135e-04  -3.3460939556386403e-04  -3.3426693209396207e-04  -3.2549594301023405e-04  -3.0890192558534826e-04  -2.8534585224720602e-04  -2.5590891928568263e-04  -2.2184928547099708e-04  -1.8455248252225971e-04  -1.4547741803684679e-04  -1.0610005626983827e-04  -6.7856946702990763e-05  -3.2090771430321735e-05  -9.8620760314382074e-17  2.7405422301548480e-05  4.9340663359981026e-05  6.5273482401024193e-05  7.4941564079041275e-05  7.8359069194818833e-05  7.5812181036064488e-05  6.7843852677565742e-05  5.5228378494902474e-05  3.8936806458663489e-05  2.0094561246753785e-05  0.0000000000000000e+00  0.0000000000000000e+00  -5.5269984439447470e-05  -1.0899793143761985e-04  -1.5940865910097715e-04  -2.0499810325263210e-04  -2.4443393904454835e-04  -2.7660302625228962e-04  -3.0065052482684633e-04  -3.1600922812376642e-04  -3.2241803291547372e-04  -3.1992887843969542e-04  -3.0890192558533845e-04  -2.8998919506854876e-04  -2.6410732291202852e-04  -2.3240050579693858e-04  -1.9619508194677909e-04  -1.5694751074489671e-04  -1.1618776404382988e-04  -7.5460314476712397e-05  -3.6264994400087918e-05  -9.7826987186115824e-17  3.2090771430125013e-05  5.8964033622978452e-05  7.9815303510474437e-05  9.4107519994012136e-05  1.0158900745187437e-04  1.0230011502582466e-04  9.6568300989176943e-05  8.4991878188459588e-05  6.8413074403902483e-05  4.7881473556505259e-05  2.4609274051312548e-05  0.0000000000000000e+00  0.0000000000000000e+00  -5.3419378582226398e-05  -1.0526556302315387e-04  -1.5374591800780936e-04  -1.9733967271259395e-04  -2.3470264921756777e-04  -2.6471609729246246e-04  -2.8652691549962143e-04  -2.9957775626372041e-04  -3.0362589743491736e-04  -2.9875019076689325e-04  -2.8534585224718504e-04  -2.6410732291201714e-04  -2.3599988382831184e-04  -2.0222113781852063e-04  -1.6415385671968304e-04  -1.2331202162572512e-04  -8.1282141998687276e-05  -3.9662117797180926e-05  -9.3281090443935207e-17  3.6264994399896522e-05  6.7856946702797680e-05  9.3711090778703359e-05  1.1301322510388312e-04  1.2522917774222765e-04  1.3012320449590898e-04  1.2776462825783732e-04  1.1852248166071508e-04  1.0304837789925535e-04  8.2248288227670480e-05  5.7244331573463154e-05  2.9328065449899970e-05  0.0000000000000000e+00  0.0000000000000000e+00  -5.0705638172793917e-05  -9.9824889927759534e-05  -1.4556926945727088e-04  -1.8641906851167881e-04  -2.2103426229420870e-04  -2.4830422509938019e-04  -2.6738863382586909e-04  -2.7774802200019439e-04  -2.7916284123870365e-04  -2.7174032550957868e-04  -2.5590891928564967e-04  -2.3240050579691521e-04  -2.0222113781850827e-04  -1.6661141281492823e-04  -1.2699802987942453e-04  -8.4938402515347637e-05  -4.2060465934309839e-05  -8.5380229990713199e-17  3.9662117797002039e-05  7.5460314476528069e-05  1.0610005626965170e-04  1.3050677486745418e-04  1.4786610792528730e-04  1.5765391227898402e-04  1.5965490313476458e-04  1.5396921112366041e-04  1.4100661463616713e-04  1.2146867930741515e-04  9.6319501593141978e-05  6.6746191103579902e-05  3.4110619832513837e-05  0.0000000000000000e+00  0.0000000000000000e+00  -4.7262941283393700e-05  -9.2943664709710621e-05  -1.3527808046850636e-04  -1.7276427081528101e-04  -2.0408133323074167e-04  -2.2813946885261237e-04  -2.4412114743186384e-04  -2.5151179136862010e-04  -2.5011882125512821e-04  -2.4007835005638607e-04  -2.2184928547095193e-04  -1.9619508194674309e-04  -1.6415385671965783e-04  -1.2699802987941149e-04  -8.6185049675295658e-05  -4.3301105592275996e-05  -7.4658649822589630e-17  4.2060465934149621e-05  8.1282141998518506e-05  1.1618776404365513e-04  1.4547741803666917e-04  1.6807806107262661e-04  1.8318419517013746e-04  1.9028813055774321e-04  1.8919867595182854e-04  1.8004753857504672e-04  1.6328318919322401e-04  1.3965242903292598e-04  1.1017036750515005e-04  7.6079963989808647e-05  3.8802686378634002e-05  0.0000000000000000e+00  0.0000000000000000e+00  -4.3241717416510206e-05  -8.4921895584845171e-05  -1.2331942020943850e-04  -1.5696560967707595e-04  -1.8457239300260608e-04  -2.0508226951964568e-04  -2.1770932148302050e-04  -2.2196971704954428e-04  -2.1770054269270466e-04  -2.0506625077458546e-04  -1.8455248252220236e-04  -1.5694751074484789e-04  -1.2331202162568672e-04  -8.4938402515321264e-05  -4.3301105592262565e-05  -6.1877454896611825e-17  4.3301105592139400e-05  8.4938402515199861e-05  1.2331202162556835e-04  1.5694751074473337e-04  1.8455248252209302e-04  2.0506625077448256e-04  2.1770054269260920e-04  2.2196971704945706e-04  2.1770932148294228e-04  2.0508226951957716e-04  1.8457239300254791e-04  1.5696560967702879e-04  1.2331942020940280e-04  8.4921895584821183e-05  4.3241717416498172e-05  0.0000000000000000e+00  0.0000000000000000e+00  -3.8802686378645969e-05  -7.6079963989832513e-05  -1.1017036750518558e-04  -1.3965242903297290e-04  -1.6328318919328188e-04  -1.8004753857511497e-04  -1.8919867595190639e-04  -1.9028813055783005e-04  -1.8318419517023249e-04  -1.6807806107272890e-04  -1.4547741803677778e-04  -1.1618776404376878e-04  -8.1282141998636155e-05  -4.2060465934270320e-05  -4.7868478371039632e-17  4.3301105592152830e-05  8.6185049675172981e-05  1.2699802987929047e-04  1.6415385671953960e-04  1.9619508194662871e-04  2.2184928547084280e-04  2.4007835005628372e-04  2.5011882125503340e-04  2.5151179136853347e-04  2.4412114743178616e-04  2.2813946885254417e-04  2.0408133323068371e-04  1.7276427081523412e-04  1.3527808046847085e-04  9.2943664709686823e-05  4.7262941283381747e-05  0.0000000000000000e+00  0.0000000000000000e+00  -3.4110619832525635e-05  -6.6746191103603415e-05  -9.6319501593177052e-05  -1.2146867930746145e-04  -1.4100661463622421e-04  -1.5396921112372772e-04  -1.5965490313484142e-04  -1.5765391227906973e-04  -1.4786610792538111e-04  -1.3050677486755501e-04  -1.0610005626975871e-04  -7.5460314476640067e-05  -3.9662117797118001e-05  -3.3542105703510940e-17  4.2060465934189113e-05  8.4938402515226288e-05  1.2699802987930351e-04  1.6661141281480870e-04  2.0222113781839151e-04  2.3240050579680229e-04  2.5590891928554222e-04  2.7174032550947785e-04  2.7916284123861030e-04  2.7774802200010906e-04  2.6738863382579249e-04  2.4830422509931302e-04  2.2103426229415162e-04  1.8641906851163268e-04  1.4556926945723594e-04  9.9824889927736034e-05  5.0705638172782126e-05  0.0000000000000000e+00  0.0000000000000000e+00  -2.9328065449911496e-05  -5.7244331573486139e-05  -8.2248288227704686e-05  -1.0304837789930051e-04  -1.1852248166077089e-04  -1.2776462825790305e-04  -1.3012320449598398e-04  -1.2522917774231132e-04  -1.1301322510397466e-04  -9.3711090778801805e-05  -6.7856946702901994e-05  -3.6264994400005735e-05  -1.9818241096213135e-17  3.9662117797064984e-05  8.1282141998569531e-05  1.2331202162560665e-04  1.6415385671956486e-04  2.0222113781840397e-04  2.3599988382819783e-04  2.6410732291190698e-04  2.8534585224708025e-04  2.9875019076679502e-04  3.0362589743482651e-04  2.9957775626363720e-04  2.8652691549954672e-04  2.6471609729239703e-04  2.3470264921751226e-04  1.9733967271254879e-04  1.5374591800777518e-04  1.0526556302313086e-04  5.3419378582214878e-05  0.0000000000000000e+00  0.0000000000000000e+00  -2.4609274051323689e-05  -4.7881473556527418e-05  -6.8413074403935497e-05  -8.4991878188503118e-05  -9.6568300989230692e-05  -1.0230011502588800e-04  -1.0158900745194669e-04  -9.4107519994092773e-05  -7.9815303510562570e-05  -5.8964033623073279e-05  -3.2090771430225586e-05  -7.5037853553194266e-18  3.6264994399978840e-05  7.5460314476600481e-05  1.1618776404371622e-04  1.5694751074478221e-04  1.9619508194666487e-04  2.3240050579682577e-04  2.6410732291191831e-04  2.8998919506844262e-04  3.0890192558523724e-04  3.1992887843960077e-04  3.2241803291538623e-04  3.1600922812368635e-04  3.0065052482677434e-04  2.7660302625222641e-04  2.4443393904449484e-04  2.0499810325258846e-04  1.5940865910094406e-04  1.0899793143759760e-04  5.5269984439436303e-05  0.0000000000000000e+00  0.0000000000000000e+00  -2.0094561246764410e-05  -3.8936806458684637e-05  -5.5228378494933956e-05  -6.7843852677607267e-05  -7.5812181036115649e-05  -7.8359069194879210e-05  -7.4941564079110230e-05  -6.5273482401101009e-05  -4.9340663360065051e-05  -2.7405422301638882e-05  2.7345954417934227e-18  3.2090771430221256e-05  6.7856946702886706e-05  1.0610005626973147e-04  1.4547741803673837e-04  1.8455248252215043e-04  2.2184928547088801e-04  2.5590891928557518e-04  2.8534585224710139e-04  3.0890192558524749e-04  3.2549594301013789e-04  3.3426693209387187e-04  3.3460939556378055e-04  3.2619917394011546e-04  3.0900889732098915e-04  2.8331239973336671e-04  2.4967788906708467e-04  2.0895009302599767e-04  1.6222202036117421e-04  1.1079737091816453e-04  5.6144982811529042e-05  0.0000000000000000e+00  0.0000000000000000e+00  -1.5905317248829703e-05  -3.0651682161374089e-05  -4.3052109550540725e-05  -5.2073825857221396e-05  -5.6828876999611935e-05  -5.6613774094968567e-05  -5.0941817240402574e-05  -3.9566806229369575e-05  -2.2497180320557150e-05  1.0532000924690161e-17  2.7405422301652617e-05  5.8964033623078158e-05  9.3711090778796519e-05  1.3050677486753885e-04  1.6807806107270142e-04  2.0506625077454637e-04  2.4007835005633582e-04  2.7174032550951834e-04  2.9875019076682413e-04  3.1992887843961909e-04  3.3426693209388011e-04  3.4096520851491805e-04  3.3946800580450000e-04  3.2948731914248940e-04  3.1101726227224848e-04  2.8433806593067127e-04  2.5000946009979478e-04  2.0885364982049971e-04  1.6192848889715381e-04  1.1049182714081284e-04  5.5958340988044436e-05  0.0000000000000000e+00  0.0000000000000000e+00  -1.2139852412332255e-05  -2.3221343454456824e-05  -3.2173271962274246e-05  -3.8059990097692915e-05  -4.0079893073241052e-05  -3.7602000188933305e-05  -3.0195749817573826e-05  -1.7652807976341804e-05  1.5671935243053986e-17  2.2497180320583787e-05  4.9340663360085272e-05  7.9815303510574916e-05  1.1301322510397777e-04  1.4786610792537434e-04  1.8318419517021552e-04  2.1770054269267707e-04  2.5011882125509021e-04  2.7916284123865600e-04  3.0362589743486169e-04  3.2241803291541089e-04  3.3460939556379573e-04  3.3946800580450683e-04  3.3649046382136082e-04  3.2542439102766770e-04  3.0628171342844668e-04  2.7934224165328893e-04  2.4514737032701702e-04  2.0448409376338774e-04  1.5835990123328977e-04  1.0796945937126875e-04  5.4654299082864224e-05  0.0000000000000000e+00  0.0000000000000000e+00  -8.8702326620032241e-06  -1.6788626843635713e-05  -2.2802612635080784e-05  -2.6076907258223252e-05  -2.5898380211250330e-05  -2.1709270378857560e-05  -1.3134216171481794e-05  1.8185860311505714e-17  1.7652807976376021e-05  3.9566806229399892e-05  6.5273482401125851e-05  9.4107519994110662e-05  1.2522917774232116e-04  1.5765391227907059e-04  1.9028813055782154e-04  2.2196971704952607e-04  2.5151179136859235e-04  2.77748022000