<?xml version="1.0"?>
<VTKFile type="UnstructuredGrid"  version="0.1"  >
<UnstructuredGrid>
<Piece  NumberOfPoints="1089" NumberOfCells="2048">
<Points>
<DataArray  type="Float64"  NumberOfComponents="3"  format="ascii">0 0 0  0.03125 0 0  0.0625 0 0  0.09375 0 0  0.125 0 0  0.15625 0 0  0.1875 0 0  0.21875 0 0  0.25 0 0  0.28125 0 0  0.3125 0 0  0.34375 0 0  0.375 0 0  0.40625 0 0  0.4375 0 0  0.46875 0 0  0.5 0 0  0.53125 0 0  0.5625 0 0  0.59375 0 0  0.625 0 0  0.65625 0 0  0.6875 0 0  0.71875 0 0  0.75 0 0  0.78125 0 0  0.8125 0 0  0.84375 0 0  0.875 0 0  0.90625 0 0  0.9375 0 0  0.96875 0 0  1 0 0  0 0.03125 0  0.03125 0.03125 0  0.0625 0.03125 0  0.09375 0.03125 0  0.125 0.03125 0  0.15625 0.03125 0  0.1875 0.03125 0  0.21875 0.03125 0  0.25 0.03125 0  0.28125 0.03125 0  0.3125 0.03125 0  0.34375 0.03125 0  0.375 0.03125 0  0.40625 0.03125 0  0.4375 0.03125 0  0.46875 0.03125 0  0.5 0.03125 0  0.53125 0.03125 0  0.5625 0.03125 0  0.59375 0.03125 0  0.625 0.03125 0  0.65625 0.03125 0  0.6875 0.03125 0  0.71875 0.03125 0  0.75 0.03125 0  0.78125 0.03125 0  0.8125 0.03125 0  0.84375 0.03125 0  0.875 0.03125 0  0.90625 0.03125 0  0.9375 0.03125 0  0.96875 0.03125 0  1 0.03125 0  0 0.0625 0  0.03125 0.0625 0  0.0625 0.0625 0  0.09375 0.0625 0  0.125 0.0625 0  0.15625 0.0625 0  0.1875 0.0625 0  0.21875 0.0625 0  0.25 0.0625 0  0.28125 0.0625 0  0.3125 0.0625 0  0.34375 0.0625 0  0.375 0.0625 0  0.40625 0.0625 0  0.4375 0.0625 0  0.46875 0.0625 0  0.5 0.0625 0  0.53125 0.0625 0  0.5625 0.0625 0  0.59375 0.0625 0  0.625 0.0625 0  0.65625 0.0625 0  0.6875 0.0625 0  0.71875 0.0625 0  0.75 0.0625 0  0.78125 0.0625 0  0.8125 0.0625 0  0.84375 0.0625 0  0.875 0.0625 0  0.90625 0.0625 0  0.9375 0.0625 0  0.96875 0.0625 0  1 0.0625 0  0 0.09375 0  0.03125 0.09375 0  0.0625 0.09375 0  0.09375 0.09375 0  0.125 0.09375 0  0.15625 0.09375 0  0.1875 0.09375 0  0.21875 0.09375 0  0.25 0.09375 0  0.28125 0.09375 0  0.3125 0.09375 0  0.34375 0.09375 0  0.375 0.09375 0  0.40625 0.09375 0  0.4375 0.09375 0  0.46875 0.09375 0  0.5 0.09375 0  0.53125 0.09375 0  0.5625 0.09375 0  0.59375 0.09375 0  0.625 0.09375 0  0.65625 0.09375 0  0.6875 0.09375 0  0.71875 0.09375 0  0.75 0.09375 0  0.78125 0.09375 0  0.8125 0.09375 0  0.84375 0.09375 0  0.875 0.09375 0  0.90625 0.09375 0  0.9375 0.09375 0  0.96875 0.09375 0  1 0.09375 0  0 0.125 0  0.03125 0.125 0  0.0625 0.125 0  0.09375 0.125 0  0.125 0.125 0  0.15625 0.125 0  0.1875 0.125 0  0.21875 0.125 0  0.25 0.125 0  0.28125 0.125 0  0.3125 0.125 0  0.34375 0.125 0  0.375 0.125 0  0.40625 0.125 0  0.4375 0.125 0  0.46875 0.125 0  0.5 0.125 0  0.53125 0.125 0  0.5625 0.125 0  0.59375 0.125 0  0.625 0.125 0  0.65625 0.125 0  0.6875 0.125 0  0.71875 0.125 0  0.75 0.125 0  0.78125 0.125 0  0.8125 0.125 0  0.84375 0.125 0  0.875 0.125 0  0.90625 0.125 0  0.9375 0.125 0  0.96875 0.125 0  1 0.125 0  0 0.15625 0  0.03125 0.15625 0  0.0625 0.15625 0  0.09375 0.15625 0  0.125 0.15625 0  0.15625 0.15625 0  0.1875 0.15625 0  0.21875 0.15625 0  0.25 0.15625 0  0.28125 0.15625 0  0.3125 0.15625 0  0.34375 0.15625 0  0.375 0.15625 0  0.40625 0.15625 0  0.4375 0.15625 0  0.46875 0.15625 0  0.5 0.15625 0  0.53125 0.15625 0  0.5625 0.15625 0  0.59375 0.15625 0  0.625 0.15625 0  0.65625 0.15625 0  0.6875 0.15625 0  0.71875 0.15625 0  0.75 0.15625 0  0.78125 0.15625 0  0.8125 0.15625 0  0.84375 0.15625 0  0.875 0.15625 0  0.90625 0.15625 0  0.9375 0.15625 0  0.96875 0.15625 0  1 0.15625 0  0 0.1875 0  0.03125 0.1875 0  0.0625 0.1875 0  0.09375 0.1875 0  0.125 0.1875 0  0.15625 0.1875 0  0.1875 0.1875 0  0.21875 0.1875 0  0.25 0.1875 0  0.28125 0.1875 0  0.3125 0.1875 0  0.34375 0.1875 0  0.375 0.1875 0  0.40625 0.1875 0  0.4375 0.1875 0  0.46875 0.1875 0  0.5 0.1875 0  0.53125 0.1875 0  0.5625 0.1875 0  0.59375 0.1875 0  0.625 0.1875 0  0.65625 0.1875 0  0.6875 0.1875 0  0.71875 0.1875 0  0.75 0.1875 0  0.78125 0.1875 0  0.8125 0.1875 0  0.84375 0.1875 0  0.875 0.1875 0  0.90625 0.1875 0  0.9375 0.1875 0  0.96875 0.1875 0  1 0.1875 0  0 0.21875 0  0.03125 0.21875 0  0.0625 0.21875 0  0.09375 0.21875 0  0.125 0.21875 0  0.15625 0.21875 0  0.1875 0.21875 0  0.21875 0.21875 0  0.25 0.21875 0  0.28125 0.21875 0  0.3125 0.21875 0  0.34375 0.21875 0  0.375 0.21875 0  0.40625 0.21875 0  0.4375 0.21875 0  0.46875 0.21875 0  0.5 0.21875 0  0.53125 0.21875 0  0.5625 0.21875 0  0.59375 0.21875 0  0.625 0.21875 0  0.65625 0.21875 0  0.6875 0.21875 0  0.71875 0.21875 0  0.75 0.21875 0  0.78125 0.21875 0  0.8125 0.21875 0  0.84375 0.21875 0  0.875 0.21875 0  0.90625 0.21875 0  0.9375 0.21875 0  0.96875 0.21875 0  1 0.21875 0  0 0.25 0  0.03125 0.25 0  0.0625 0.25 0  0.09375 0.25 0  0.125 0.25 0  0.15625 0.25 0  0.1875 0.25 0  0.21875 0.25 0  0.25 0.25 0  0.28125 0.25 0  0.3125 0.25 0  0.34375 0.25 0  0.375 0.25 0  0.40625 0.25 0  0.4375 0.25 0  0.46875 0.25 0  0.5 0.25 0  0.53125 0.25 0  0.5625 0.25 0  0.59375 0.25 0  0.625 0.25 0  0.65625 0.25 0  0.6875 0.25 0  0.71875 0.25 0  0.75 0.25 0  0.78125 0.25 0  0.8125 0.25 0  0.84375 0.25 0  0.875 0.25 0  0.90625 0.25 0  0.9375 0.25 0  0.96875 0.25 0  1 0.25 0  0 0.28125 0  0.03125 0.28125 0  0.0625 0.28125 0  0.09375 0.28125 0  0.125 0.28125 0  0.15625 0.28125 0  0.1875 0.28125 0  0.21875 0.28125 0  0.25 0.28125 0  0.28125 0.28125 0  0.3125 0.28125 0  0.34375 0.28125 0  0.375 0.28125 0  0.40625 0.28125 0  0.4375 0.28125 0  0.46875 0.28125 0  0.5 0.28125 0  0.53125 0.28125 0  0.5625 0.28125 0  0.59375 0.28125 0  0.625 0.28125 0  0.65625 0.28125 0  0.6875 0.28125 0  0.71875 0.28125 0  0.75 0.28125 0  0.78125 0.28125 0  0.8125 0.28125 0  0.84375 0.28125 0  0.875 0.28125 0  0.90625 0.28125 0  0.9375 0.28125 0  0.96875 0.28125 0  1 0.28125 0  0 0.3125 0  0.03125 0.3125 0  0.0625 0.3125 0  0.09375 0.3125 0  0.125 0.3125 0  0.15625 0.3125 0  0.1875 0.3125 0  0.21875 0.3125 0  0.25 0.3125 0  0.28125 0.3125 0  0.3125 0.3125 0  0.34375 0.3125 0  0.375 0.3125 0  0.40625 0.3125 0  0.4375 0.3125 0  0.46875 0.3125 0  0.5 0.3125 0  0.53125 0.3125 0  0.5625 0.3125 0  0.59375 0.3125 0  0.625 0.3125 0  0.65625 0.3125 0  0.6875 0.3125 0  0.71875 0.3125 0  0.75 0.3125 0  0.78125 0.3125 0  0.8125 0.3125 0  0.84375 0.3125 0  0.875 0.3125 0  0.90625 0.3125 0  0.9375 0.3125 0  0.96875 0.3125 0  1 0.3125 0  0 0.34375 0  0.03125 0.34375 0  0.0625 0.34375 0  0.09375 0.34375 0  0.125 0.34375 0  0.15625 0.34375 0  0.1875 0.34375 0  0.21875 0.34375 0  0.25 0.34375 0  0.28125 0.34375 0  0.3125 0.34375 0  0.34375 0.34375 0  0.375 0.34375 0  0.40625 0.34375 0  0.4375 0.34375 0  0.46875 0.34375 0  0.5 0.34375 0  0.53125 0.34375 0  0.5625 0.34375 0  0.59375 0.34375 0  0.625 0.34375 0  0.65625 0.34375 0  0.6875 0.34375 0  0.71875 0.34375 0  0.75 0.34375 0  0.78125 0.34375 0  0.8125 0.34375 0  0.84375 0.34375 0  0.875 0.34375 0  0.90625 0.34375 0  0.9375 0.34375 0  0.96875 0.34375 0  1 0.34375 0  0 0.375 0  0.03125 0.375 0  0.0625 0.375 0  0.09375 0.375 0  0.125 0.375 0  0.15625 0.375 0  0.1875 0.375 0  0.21875 0.375 0  0.25 0.375 0  0.28125 0.375 0  0.3125 0.375 0  0.34375 0.375 0  0.375 0.375 0  0.40625 0.375 0  0.4375 0.375 0  0.46875 0.375 0  0.5 0.375 0  0.53125 0.375 0  0.5625 0.375 0  0.59375 0.375 0  0.625 0.375 0  0.65625 0.375 0  0.6875 0.375 0  0.71875 0.375 0  0.75 0.375 0  0.78125 0.375 0  0.8125 0.375 0  0.84375 0.375 0  0.875 0.375 0  0.90625 0.375 0  0.9375 0.375 0  0.96875 0.375 0  1 0.375 0  0 0.40625 0  0.03125 0.40625 0  0.0625 0.40625 0  0.09375 0.40625 0  0.125 0.40625 0  0.15625 0.40625 0  0.1875 0.40625 0  0.21875 0.40625 0  0.25 0.40625 0  0.28125 0.40625 0  0.3125 0.40625 0  0.34375 0.40625 0  0.375 0.40625 0  0.40625 0.40625 0  0.4375 0.40625 0  0.46875 0.40625 0  0.5 0.40625 0  0.53125 0.40625 0  0.5625 0.40625 0  0.59375 0.40625 0  0.625 0.40625 0  0.65625 0.40625 0  0.6875 0.40625 0  0.71875 0.40625 0  0.75 0.40625 0  0.78125 0.40625 0  0.8125 0.40625 0  0.84375 0.40625 0  0.875 0.40625 0  0.90625 0.40625 0  0.9375 0.40625 0  0.96875 0.40625 0  1 0.40625 0  0 0.4375 0  0.03125 0.4375 0  0.0625 0.4375 0  0.09375 0.4375 0  0.125 0.4375 0  0.15625 0.4375 0  0.1875 0.4375 0  0.21875 0.4375 0  0.25 0.4375 0  0.28125 0.4375 0  0.3125 0.4375 0  0.34375 0.4375 0  0.375 0.4375 0  0.40625 0.4375 0  0.4375 0.4375 0  0.46875 0.4375 0  0.5 0.4375 0  0.53125 0.4375 0  0.5625 0.4375 0  0.59375 0.4375 0  0.625 0.4375 0  0.65625 0.4375 0  0.6875 0.4375 0  0.71875 0.4375 0  0.75 0.4375 0  0.78125 0.4375 0  0.8125 0.4375 0  0.84375 0.4375 0  0.875 0.4375 0  0.90625 0.4375 0  0.9375 0.4375 0  0.96875 0.4375 0  1 0.4375 0  0 0.46875 0  0.03125 0.46875 0  0.0625 0.46875 0  0.09375 0.46875 0  0.125 0.46875 0  0.15625 0.46875 0  0.1875 0.46875 0  0.21875 0.46875 0  0.25 0.46875 0  0.28125 0.46875 0  0.3125 0.46875 0  0.34375 0.46875 0  0.375 0.46875 0  0.40625 0.46875 0  0.4375 0.46875 0  0.46875 0.46875 0  0.5 0.46875 0  0.53125 0.46875 0  0.5625 0.46875 0  0.59375 0.46875 0  0.625 0.46875 0  0.65625 0.46875 0  0.6875 0.46875 0  0.71875 0.46875 0  0.75 0.46875 0  0.78125 0.46875 0  0.8125 0.46875 0  0.84375 0.46875 0  0.875 0.46875 0  0.90625 0.46875 0  0.9375 0.46875 0  0.96875 0.46875 0  1 0.46875 0  0 0.5 0  0.03125 0.5 0  0.0625 0.5 0  0.09375 0.5 0  0.125 0.5 0  0.15625 0.5 0  0.1875 0.5 0  0.21875 0.5 0  0.25 0.5 0  0.28125 0.5 0  0.3125 0.5 0  0.34375 0.5 0  0.375 0.5 0  0.40625 0.5 0  0.4375 0.5 0  0.46875 0.5 0  0.5 0.5 0  0.53125 0.5 0  0.5625 0.5 0  0.59375 0.5 0  0.625 0.5 0  0.65625 0.5 0  0.6875 0.5 0  0.71875 0.5 0  0.75 0.5 0  0.78125 0.5 0  0.8125 0.5 0  0.84375 0.5 0  0.875 0.5 0  0.90625 0.5 0  0.9375 0.5 0  0.96875 0.5 0  1 0.5 0  0 0.53125 0  0.03125 0.53125 0  0.0625 0.53125 0  0.09375 0.53125 0  0.125 0.53125 0  0.15625 0.53125 0  0.1875 0.53125 0  0.21875 0.53125 0  0.25 0.53125 0  0.28125 0.53125 0  0.3125 0.53125 0  0.34375 0.53125 0  0.375 0.53125 0  0.40625 0.53125 0  0.4375 0.53125 0  0.46875 0.53125 0  0.5 0.53125 0  0.53125 0.53125 0  0.5625 0.53125 0  0.59375 0.53125 0  0.625 0.53125 0  0.65625 0.53125 0  0.6875 0.53125 0  0.71875 0.53125 0  0.75 0.53125 0  0.78125 0.531
[...]
<PointData  Scalars="u"> 
<DataArray  type="Float64"  Name="u"  format="ascii">0.0000000000000000e+00  0.0000000000000000e+00  0.0000000000000000e+00  0.0000000000000000e+00  0.0000000000000000e+00  0.0000000000000000e+00  0.0000000000000000e+00  0.0000000000000000e+00  0.0000000000000000e+00  0.0000000000000000e+00  0.0000000000000000e+00  0.0000000000000000e+00  0.0000000000000000e+00  0.0000000000000000e+00  0.0000000000000000e+00  0.0000000000000000e+00  0.0000000000000000e+00  0.0000000000000000e+00  0.0000000000000000e+00  0.0000000000000000e+00  0.0000000000000000e+00  0.0000000000000000e+00  0.0000000000000000e+00  0.0000000000000000e+00  0.0000000000000000e+00  0.0000000000000000e+00  0.0000000000000000e+00  0.0000000000000000e+00  0.0000000000000000e+00  0.0000000000000000e+00  0.0000000000000000e+00  0.0000000000000000e+00  0.0000000000000000e+00  0.0000000000000000e+00  1.5060810344465761e-02  3.0074202734892506e-02  4.4944688714981182e-02  5.9496703750017685e-02  7.3448665400217314e-02  8.6413428858138297e-02  9.7939089377897040e-02  1.0759414384878996e-01  1.1508397660943677e-01  1.2037798508915566e-01  1.2378525479323899e-01  1.2587803433690356e-01  1.2730443951345827e-01  1.2863582631959378e-01  1.3029107426883965e-01  1.3250982417432300e-01  1.3533628543966195e-01  1.3859103282935561e-01  1.4183162254623360e-01  1.4432959120708336e-01  1.4511426647827053e-01  1.4313017180895662e-01  1.3751083003800485e-01  1.2795161533378122e-01  1.1496723564629695e-01  9.9638100533159357e-02  8.3073664797003802e-02  6.6100372622519846e-02  4.9199149519627533e-02  3.2566345824362630e-02  1.6204107230308695e-02  0.0000000000000000e+00  0.0000000000000000e+00  3.0222796961187199e-02  6.0390697482809591e-02  9.0351964895478171e-02  1.1978078756883806e-01  1.4811272789069305e-01  1.7453172225607627e-01  1.9804779271893505e-01  2.1768059678534193e-01  2.3271331511605381e-01  2.4300920278174679e-01  2.4926374163890616e-01  2.5280995718939042e-01  2.5509804751948811e-01  2.5734760989593181e-01  2.6042400032541607e-01  2.6482310918054630e-01  2.7066149825752112e-01  2.7761910877719659e-01  2.8483289030591008e-01  2.9080040339871310e-01  2.9342084456347722e-01  2.9030743364925454e-01  2.7935293889440277e-01  2.5969042011303972e-01  2.3260414217997705e-01  2.0079365844325278e-01  1.6679205166613287e-01  1.3231639131351736e-01  9.8268687615380393e-02  6.4951872458494625e-02  3.2290850175120636e-02  0.0000000000000000e+00  0.0000000000000000e+00  4.5539586803491551e-02  9.1105229210757518e-02  1.3657303322870010e-01  1.8153030367656828e-01  2.2514112521917798e-01  2.6608079248997435e-01  3.0263553215950018e-01  3.3302033745523274e-01  3.5577844092544447e-01  3.7041490430062990e-01  3.7820792113384372e-01  3.8177434738112204e-01  3.8371712544720926e-01  3.8603021781941382e-01  3.9004245892983386e-01  3.9651679525771460e-01  4.0569945159697907e-01  4.1723507737965854e-01  4.2993419847403291e-01  4.4147594760031073e-01  4.4831265697350414e-01  4.4615617918177281e-01  4.3069425920449683e-01  3.9958590532197491e-01  3.5562357030427327e-01  3.0471247925129158e-01  2.5146352781853087e-01  1.9848694928148625e-01  1.4689205977793782e-01  9.6868465258854147e-02  4.8096727805119061e-02  0.0000000000000000e+00  0.0000000000000000e+00  6.0976367490379976e-02  1.2220119819317253e-01  1.8372388987460950e-01  2.4517762460089965e-01  3.0551814379289455e-01  3.6280916648261996e-01  4.1429164087422571e-01  4.5697297496761685e-01  4.8802044131608968e-01  5.0576942045596995e-01  5.1251814807254314e-01  5.1352471738843419e-01  5.1314478443236589e-01  5.1420680613317771e-01  5.1840662128895854e-01  5.2672658207125056e-01  5.3962764176016642e-01  5.5695041469949436e-01  5.7747313331213490e-01  5.9814663422905034e-01  6.1348293437064405e-01  6.1656815025724665e-01  5.9888252942228348e-01  5.5344660803800361e-01  4.8658722421063222e-01  4.1183175598733679e-01  3.3658321419551962e-01  2.6385057041023863e-01  1.9437225645344650e-01  1.2781525787528353e-01  6.3364469479374727e-02  0.0000000000000000e+00  0.0000000000000000e+00  7.6356593347755478e-02  1.5337486402087280e-01  2.3150117117198565e-01  3.1067387146055297e-01  3.8985175349533968e-01  4.6641307034135238e-01  5.3595865389270614e-01  5.9388930480686619e-01  6.3498335713739751e-01  6.5361047463382771e-01  6.5409691431668393e-01  6.4821290163762946e-01  6.4269922310757555e-01  6.4082982856809201e-01  6.4425209048812915e-01  6.5397774463852798e-01  6.7078199039362074e-01  6.9514227791572747e-01  7.2656591838076223e-01  7.6187973433245137e-01  7.9263200228773556e-01  8.0945035654583875e-01  7.9644720459030471e-01  7.3023214880448528e-01  6.2678403500875712e-01  5.2059600527443262e-01  4.2014499806173983e-01  3.2672182229917407e-01  2.3949804611343151e-01  1.5702972502614726e-01  7.7728627573472195e-02  0.0000000000000000e+00  0.0000000000000000e+00  9.1312063526180404e-02  1.8390675509613028e-01  2.7892677216185219e-01  3.7708541315592187e-01  4.7794179105489926e-01  5.7837920897995043e-01  6.7077272413151190e-01  7.4933059408502956e-01  8.0621910033361333e-01  8.2147175678669082e-01  8.0396486044470461e-01  7.8447058528559566e-01  7.7056336911040868e-01  7.6412914661475406e-01  7.6577994859912590e-01  7.7616019789044721e-01  7.9642169832666798e-01  8.2835079728397965e-01  8.7389126073440759e-01  9.3233518380616176e-01  9.8789322119604872e-01  1.0190770614240643e+00  1.0188287646056924e+00  9.3092351855186672e-01  7.7140178685936089e-01  6.2505850830121290e-01  4.9786541000066331e-01  3.8433384662652093e-01  2.8056657791333600e-01  1.8353744596527213e-01  9.0746303858609489e-02  0.0000000000000000e+00  0.0000000000000000e+00  1.0526506326558140e-01  2.1256722997762328e-01  3.2404217713935796e-01  4.4190200012578906e-01  5.6782443069539890e-01  7.0002165248012016e-01  8.2128762942637146e-01  9.1326872993299124e-01  9.9083101670011797e-01  1.0091465772017087e+00  9.5813516838049118e-01  9.1746525192582395e-01  8.9328500989026449e-01  8.8168368957858767e-01  8.8093496266112559e-01  8.9084317074028041e-01  9.1281137783314870e-01  9.5041355247095272e-01  1.0108383650727630e+00  1.0930297415923589e+00  1.1796866636770085e+00  1.2170454749862010e+00  1.1942781163573433e+00  1.0836687825948492e+00  8.8962194202827238e-01  7.1207306020432948e-01  5.6332236321923712e-01  4.3328550151364231e-01  3.1571537264097094e-01  2.0634684927237507e-01  1.0198475582580090e-01  0.0000000000000000e+00  0.0000000000000000e+00  1.1750132707662293e-01  2.3769079717239644e-01  3.6372710350044285e-01  4.9993301131757423e-01  6.5303442963871350e-01  8.1927997642655404e-01  9.7282014316610987e-01  1.0635870788616655e+00  1.1154203361679165e+00  1.1469701532353658e+00  1.0894348206183282e+00  1.0366659350504488e+00  1.0061196961045815e+00  9.9108198271334769e-01  9.8814268565817098e-01  9.9619930441328819e-01  1.0163361196647531e+00  1.0524746626326300e+00  1.1136773194345426e+00  1.2065299838833621e+00  1.2867015731154792e+00  1.3258146286009223e+00  1.2928925492802508e+00  1.1701632523317944e+00  9.6317899108908123e-01  7.7222352578931364e-01  6.1164783965055436e-01  4.7101745062163403e-01  3.4358637912662560e-01  2.2475918310534226e-01  1.1114650831962813e-01  0.0000000000000000e+00  0.0000000000000000e+00  1.2740566088656122e-01  2.5767656507052827e-01  3.9430919236387846e-01  5.4250147973190321e-01  7.1167613575676281e-01  9.0772404253772498e-01  1.0677628724118884e+00  1.1489586017280680e+00  1.2022969800314391e+00  1.2398188766943923e+00  1.1885581155431511e+00  1.1366842603354637e+00  1.1064766790871330e+00  1.0914137224608498e+00  1.0873963558801312e+00  1.0925360460998466e+00  1.1069493439408684e+00  1.1326053532381091e+00  1.1728286740143741e+00  1.2293438811290012e+00  1.2857560751727375e+00  1.3271109516397548e+00  1.3016714180209994e+00  1.1914681070530682e+00  9.9275601609868802e-01  8.0410898346799375e-01  6.4175869145593711e-01  4.9691473359865757e-01  3.6386521493242963e-01  2.3862502247179740e-01  1.1817245153965114e-01  0.0000000000000000e+00  0.0000000000000000e+00  1.3483151401432916e-01  2.7207154854344706e-01  4.1449168109865497e-01  5.6564569386054053e-01  7.3018065956530176e-01  9.1268915982668886e-01  1.0919559806384442e+00  1.2042675170773662e+00  1.2624965418916598e+00  1.3029082723901195e+00  1.2611840374455778e+00  1.2183837926532550e+00  1.1950311593177618e+00  1.1840447680549349e+00  1.1808460297205881e+00  1.1829645800581994e+00  1.1897020168075412e+00  1.2015734665904843e+00  1.2191228137379693e+00  1.2404945714198963e+00  1.2576474003966716e+00  1.2615363624420768e+00  1.2309412006813392e+00  1.1519749421233088e+00  9.8445234675114635e-01  8.1193797278040925e-01  6.5620365637287892e-01  5.1247290665049894e-01  3.7741597716244707e-01  2.4841847178797177e-01  1.2327281915436833e-01  0.0000000000000000e+00  0.0000000000000000e+00  1.4026088630168643e-01  2.8210780626809123e-01  4.2717382366631168e-01  5.7705925519671752e-01  7.3278513864812744e-01  8.9292648845873468e-01  1.0488875719607988e+00  1.1797482141397149e+00  1.2829920815144882e+00  1.3298175275206607e+00  1.3080246187772910e+00  1.2842527264678891e+00  1.2748456713796734e+00  1.2725254971200022e+00  1.2726250241780239e+00  1.2724262004691820e+00  1.2709733912051568e+00  1.2685124976272748e+00  1.2652338305049915e+00  1.2594833813860262e+00  1.2463781299298844e+00  1.2187011278229143e+00  1.1662123163955176e+00  1.0822436463660572e+00  9.5339179747397984e-01  8.0530416160364560e-01  6.6056072242516406e-01  5.2087873933167839e-01  3.8604122963584642e-01  2.5511185292117738e-01  1.2687388242526729e-01  0.0000000000000000e+00  0.0000000000000000e+00  1.4453732103075634e-01  2.8978765592833206e-01  4.3632856067384601e-01  5.8435268639114457e-01  7.3311954909373023e-01  8.7990533713793007e-01  1.0186366929399597e+00  1.1404294627118023e+00  1.2415806464245023e+00  1.3071949593816119e+00  1.3301855639538049e+00  1.3396104275038041e+00  1.3514614345375260e+00  1.3625012283279809e+00  1.3686313634122520e+00  1.3670701376086163e+00  1.3571646949716287e+00  1.3401490224615011e+00  1.3176479973929198e+00  1.2895900777973068e+00  1.2533470255407109e+00  1.2042069908590192e+00  1.1363003804220044e+00  1.0452388921675346e+00  9.2907552427563422e-01  7.9768682294383197e-01  6.6182187189795538e-01  5.2600877300074111e-01  3.9193135239866000e-01  2.5989336333635860e-01  1.2949897892381315e-01  0.0000000000000000e+00  0.0000000000000000e+00  1.4855228796531478e-01  2.9707540149740513e-01  4.4534210553017795e-01  5.9268299761071375e-01  7.3764200608898645e-01  8.7755559307709041e-01  1.0083227186471158e+00  1.1250886959541082e+00  1.2240914572491808e+00  1.3005607496446125e+00  1.3546505977475565e+00  1.3966076310266564e+00  1.4330244865046518e+00  1.4615720304509818e+00  1.4765380276623041e+00  1.4742619519757520e+00  1.4546355511991660e+00  1.4213790404412239e+00  1.3796413095380253e+00  1.3317928884946206e+00  1.2769826758678289e+00  1.2120704424696622e+00  1.1329093943205186e+00  1.0364251276252161e+00  9.2274426178413094e-01  7.9693668431063347e-01  6.6503299299532381e-01  5.3100706550718579e-01  3.9698475793425214e-01  2.6383212072398321e-01  1.3162805446001552e-01  0.0000000000000000e+00  0.0000000000000000e+00  1.5306548543770826e-01  3.0555183371045480e-01  4.5667099457924709e-01  6.0523213447106849e-01  7.4947925966732043e-01  8.8703233695780104e-01  1.0150702562117169e+00  1.1309123618975314e+00  1.2328310192729079e+00  1.3202423014525555e+00  1.3953721273860107e+00  1.4634136458599627e+00  1.5268381724932389e+00  1.5786841956662920e+00  1.6061835186138180e+00  1.6032917791106476e+00  1.5701702121093253e+00  1.5154315234859255e+00  1.4519631180329391e+00  1.3850243496543904e+00  1.3146075413655471e+00  1.2378568828342915e+00  1.1502636217867017e+00  1.0479350955887670e+00  9.3133105768111590e-01  8.0470586184991055e-01  6.7240050898618131e-01  5.3763516102258380e-01  4.0239538010466980e-01  2.6764027295717374e-01  1.3358947357351078e-01  0.0000000000000000e+00  0.0000000000000000e+00  1.5864483888378136e-01  3.1636249779007092e-01  4.7199695625639487e-01  6.2399356567023889e-01  7.7034971072209268e-01  9.0877958641810452e-01  1.0371539034530117e+00  1.1541476151620131e+00  1.2598729549123222e+00  1.3562648247987983e+00  1.4474660836147497e+00  1.5393116095416708e+00  1.6368639637342997e+00  1.7248916311031550e+00  1.7710236498020828e+00  1.7673419625937503e+00  1.7120337900678555e+00  1.6227957909167980e+00  1.5321739529893252e+00  1.4459635968453570e+00  1.3625826118319981e+00  1.2782608839180176e+00  1.1858527624484794e+00  1.0769071770683032e+00  9.5277735196617730e-01  8.2061761212260453e-01  6.8429546941325248e-01  5.4639856713821744e-01  4.0856940650739115e-01  2.7157656118627821e-01  1.3550536174715069e-01  0.0000000000000000e+00  0.0000000000000000e+00  1.6565776752254985e-01  3.3026115049470872e-01  4.9245439340259861e-01  6.5036286756023809e-01  8.0156648608440040e-01  9.4342777326086036e-01  1.0738560783109528e+00  1.1922452817869742e+00  1.3001611887711286e+00  1.4016744631337663e+00  1.5033661573570545e+00  1.6141845032749682e+00  1.7460717173173408e+00  1.8875810345664659e+00  1.9603440388881024e+00  1.9576684103185804e+00  1.8775994783155074e+00  1.7363716390941644e+00  1.6125925767234739e+00  1.5084670078225482e+00  1.4156497794972105e+00  1.3306398099129886e+00  1.2415745436827921e+00  1.1243268191840989e+00  9.8515111552830570e-01  8.4319985274914677e-01  6.9986781055177794e-01  5.5678167058516914e-01  4.1517433090179295e-01  2.7543611250937428e-01  1.3727745143709016e-01  0.0000000000000000e+00  0.0000000000000000e+00  1.7425271624579647e-01  3.4761649036313802e-01  5.1875150179669938e-01  6.8548345203556127e-01  8.4463976356905468e-01  9.9246024042627257e-01  1.1259498406582935e+00  1.2445316306737664e+00  1.3508935989059934e+00  1.4512421714685151e+00  1.5547486116013371e+00  1.6728587072306513e+00  1.8203143331805791e+00  1.9872513510120302e+00  2.0782160444375868e+00  2.0784850046460495e+00  1.9877459779748743e+00  1.8223267403056416e+00  1.6781636362870742e+00  1.5642085682082456e+00  1.4651903308007641e+00  1.3758440773993958e+00  1.2987123561243876e+00  1.1817930654637760e+00  1.0232649467276256e+00  8.6971987263594919e-01  7.1733202226362502e-01  5.6739795348770161e-01  4.2119374910244917e-01  2.7857109154428850e-01  1.3859528116721773e-01  0.0000000000000000e+00  0.0000000000000000e+00  1.8428719945658475e-01  3.6829286495443497e-01  5.5107481443448247e-01  7.3031575772990476e-01  9.0167146994347025e-01  1.0588975252348236e+00  1.1964349594984536e+00  1.3128871664772692e+00  1.4118144210815353e+00  1.5021215231179839e+00  1.5962728483504527e+00  1.7072044614727309e+00  1.8499003395739508e+00  2.0160930090413021e+00  2.1096510876249899e+00  2.1131660453235397e+00  2.0257396837782551e+00  1.8618012854394546e+00  1.7184823979027881e+00  1.6096869045401041e+00  1.5094469186201196e+00  1.3976941245008070e+00  1.2927846164591714e+00  1.1776603740026250e+00  1.0441896815437453e+00  8.9768598661655830e-01  7.3451124555338476e-01  5.7601583822188851e-01  4.2492678596672717e-01  2.7992058904609668e-01  1.3896251633642695e-01  0.0000000000000000e+00  0.0000000000000000e+00  1.9517758296844248e-01  3.9133351391115978e-01  5.8863608944261270e-01  7.8526899373382963e-01  9.7557866530482151e-01  1.1482380156765855e+00  1.2916372252371673e+00  1.4027625269318518e+00  1.4856643714359103e+00  1.5537444172550090e+00  1.6258652587205729e+00  1.7148933500008703e+00  1.8308959429854483e+00  1.9708487442166509e+00  2.0540823730489470e+00  2.0617372951098623e+00  1.9935096733064053e+00  1.8555282911278570e+00  1.7293253564479745e+00  1.6361383389188005e+00  1.5544479044761181e+00  1.4168441670267999e+00  1.2856471792745716e+00  1.1648590320793317e+00  1.0507412159686895e+00  9.2972714735188822e-01  7.4920131003781210e-01  5.7896861256731391e-01  4.2387546529810943e-01  2.7808392649347102e-01  1.3776422298190871e-01  0.0000000000000000e+00  0.0000000000000000e+00  2.0568668433601783e-01  4.1441564366656486e-01  6.2863956143404154e-01  8.4888800588761004e-01  1.0700200642617881e+00  1.2702144016570229e+00  1.4229141270085295e+00  1.5250148114348578e+00  1.5787774582043692e+00  1.6060121539076317e+00  1.6434618929091540e+00  1.7007432159608860e+00  1.7780722897884955e+00  1.8660298380185836e+00  1.9274596727542970e+00  1.9395611630269607e+00  1.8995083408813018e+00  1.8123530527053124e+00  1.7122215278368222e+00  1.6254216115029383e+00  1.5532282684742966e+00  1.4185139406476484e+00  1.2718984482611020e+00  1.1488191581226721e+00  1.0367760713444716e+00  9.1728861088826419e-01  7.4055764020551706e-01  5.6851665886152214e-01  4.1481169686170505e-01  2.7162959764853584e-01  1.3443648848099582e-01  0.0000000000000000e+00  0.0000000000000000e+00  2.1376906190897851e-01  4.3323187138483060e-01  6.6446054832305956e-01  9.1407190908132596e-01  1.1731958548754289e+00  1.4127722710698576e+00  1.5783112609445571e+00  1.6694618848108120e+00  1.6877540006895033e+00  1.6528219847262988e+00  1.6461573448320035e+00  1.6716512016682001e+00  1.7199037093050444e+00  1.7779510648787606e+00  1.8252475089804359e+00  1.8446300504260424e+00  1.8276033394080551e+00  1.7721894678919468e+00  1.6868076664450893e+00  1.5896212227039834e+00  1.4971302185825606e+00  1.3905117580690387e+00  1.2383630553666154e+00  1.1098852058206017e+00  1.0027887926446359e+00  8.5805627839135701e-01  6.9891271801360433e-01  5.4143061372788159e-01  3.9648711961831978e-01  2.6002167366235063e-01  1.2876897392022726e-01  0.0000000000000000e+00  0.0000000000000000e+00  2.1678312078816023e-01  4.4153641873052896e-01  6.8378974281000904e-01  9.5704275958192309e-01  1.2533743432164455e+00  1.4959747860312125e+00  1.6599133399624779e+00  1.7388995806851544e+00  1.7327500938183218e+00  1.6609164262030012e+00  1.6215911589078047e+00  1.6248233370233227e+00  1.6570971984138707e+00  1.7059044309175446e+00  1.7563154502553047e+00  1.7914913491596678e+00  1.7994012645841733e+00  1.7671533281460197e+00  1.6781274569783917e+00  1.5537810512058861e+00  1.4290520104790589e+00  1.3054267536118953e+00  1.1695699929039540e+00  1.0376050613824215e+00  9.1792834457329087e-01  7.8526253046141992e-01  6.4244140397821181e-01  5.0344215725182417e-01  3.7089888273509841e-01  2.4400529044264538e-01  1.2101954827446365e-01  0.0000000000000000e+00  0.0000000000000000e+00  2.1244884013028364e-01  4.3359325053176390e-01  6.7401706407383943e-01  9.4902872721572362e-01  1.2533893257575732e+00  1.4940429815015521e+00  1.6478752210499783e+00  1.7151742341396761e+00  1.6957559913920881e+00  1.6107656952482337e+00  1.5592588949861470e+00  1.5538327371135225e+00  1.5827432377049717e+00  1.6373490025167119e+00  1.7078002162457770e+00  1.7708362839030829e+00  1.8013036578548753e+00  1.7934781736590271e+00  1.6943537043405228e+00  1.5228432500021929e+00  1.3640632087414242e+00  1.2211878302786086e+00  1.0851308067965075e+00  9.5614058295575455e-01  8.3355495065968954e-01  7.0973623022395216e-01  5.8409328740681676e-01  4.6054065658435478e-01  3.4080899026747696e-01  2.2484256023526253e-01  1.1168506129507751e-01  0.0000000000000000e+00  0.0000000000000000e+00  2.0002018771531752e-01  4.0758524602096025e-01  6.3150131278799015e-01  8.8369620685637307e-01  1.1679162839488579e+00  1.3998264033609116e+00  1.5436821622773576e+00  1.5997480676574838e+00  1.5765151667947626e+00  1.5012239144370454e+00  1.4554405228096423e+00  1.4531675118880860e+00  1.4874530101533159e+00  1.5578206322721584e+00  1.6564470623052827e+00  1.7573299037126646e+00  1.8008357201243932e+00  1.7789244035007195e+00  1.6657837729578968e+00  1.4682953501597997e+00  1.2871629174672898e+00  1.1337615379710919e+00  9.9689059881943365e-01  8.7117154377149908e-01  7.5295166242374723e-01  6.3820538778639513e-01  5.2545564423951052e-01  4.1524951555995249e-01  3.0802101106136182e-01  2.0357985733388789e-01  1.0123367084447042e-01  0.0000000000000000e+00  0.0000000000000000e+00  1.8060947650515466e-01  3.6636510144727263e-01  5.6243434530880199e-01  7.7343919428808972e-01  1