<?xml version="1.0"?>
<VTKFile type="UnstructuredGrid"  version="0.1"  >
<UnstructuredGrid>
<Piece  NumberOfPoints="1089" NumberOfCells="2048">
<Points>
<DataArray  type="Float64"  NumberOfComponents="3"  format="ascii">0 0 0  0.03125 0 0  0.0625 0 0  0.09375 0 0  0.125 0 0  0.15625 0 0  0.1875 0 0  0.21875 0 0  0.25 0 0  0.28125 0 0  0.3125 0 0  0.34375 0 0  0.375 0 0  0.40625 0 0  0.4375 0 0  0.46875 0 0  0.5 0 0  0.53125 0 0  0.5625 0 0  0.59375 0 0  0.625 0 0  0.65625 0 0  0.6875 0 0  0.71875 0 0  0.75 0 0  0.78125 0 0  0.8125 0 0  0.84375 0 0  0.875 0 0  0.90625 0 0  0.9375 0 0  0.96875 0 0  1 0 0  0 0.03125 0  0.03125 0.03125 0  0.0625 0.03125 0  0.09375 0.03125 0  0.125 0.03125 0  0.15625 0.03125 0  0.1875 0.03125 0  0.21875 0.03125 0  0.25 0.03125 0  0.28125 0.03125 0  0.3125 0.03125 0  0.34375 0.03125 0  0.375 0.03125 0  0.40625 0.03125 0  0.4375 0.03125 0  0.46875 0.03125 0  0.5 0.03125 0  0.53125 0.03125 0  0.5625 0.03125 0  0.59375 0.03125 0  0.625 0.03125 0  0.65625 0.03125 0  0.6875 0.03125 0  0.71875 0.03125 0  0.75 0.03125 0  0.78125 0.03125 0  0.8125 0.03125 0  0.84375 0.03125 0  0.875 0.03125 0  0.90625 0.03125 0  0.9375 0.03125 0  0.96875 0.03125 0  1 0.03125 0  0 0.0625 0  0.03125 0.0625 0  0.0625 0.0625 0  0.09375 0.0625 0  0.125 0.0625 0  0.15625 0.0625 0  0.1875 0.0625 0  0.21875 0.0625 0  0.25 0.0625 0  0.28125 0.0625 0  0.3125 0.0625 0  0.34375 0.0625 0  0.375 0.0625 0  0.40625 0.0625 0  0.4375 0.0625 0  0.46875 0.0625 0  0.5 0.0625 0  0.53125 0.0625 0  0.5625 0.0625 0  0.59375 0.0625 0  0.625 0.0625 0  0.65625 0.0625 0  0.6875 0.0625 0  0.71875 0.0625 0  0.75 0.0625 0  0.78125 0.0625 0  0.8125 0.0625 0  0.84375 0.0625 0  0.875 0.0625 0  0.90625 0.0625 0  0.9375 0.0625 0  0.96875 0.0625 0  1 0.0625 0  0 0.09375 0  0.03125 0.09375 0  0.0625 0.09375 0  0.09375 0.09375 0  0.125 0.09375 0  0.15625 0.09375 0  0.1875 0.09375 0  0.21875 0.09375 0  0.25 0.09375 0  0.28125 0.09375 0  0.3125 0.09375 0  0.34375 0.09375 0  0.375 0.09375 0  0.40625 0.09375 0  0.4375 0.09375 0  0.46875 0.09375 0  0.5 0.09375 0  0.53125 0.09375 0  0.5625 0.09375 0  0.59375 0.09375 0  0.625 0.09375 0  0.65625 0.09375 0  0.6875 0.09375 0  0.71875 0.09375 0  0.75 0.09375 0  0.78125 0.09375 0  0.8125 0.09375 0  0.84375 0.09375 0  0.875 0.09375 0  0.90625 0.09375 0  0.9375 0.09375 0  0.96875 0.09375 0  1 0.09375 0  0 0.125 0  0.03125 0.125 0  0.0625 0.125 0  0.09375 0.125 0  0.125 0.125 0  0.15625 0.125 0  0.1875 0.125 0  0.21875 0.125 0  0.25 0.125 0  0.28125 0.125 0  0.3125 0.125 0  0.34375 0.125 0  0.375 0.125 0  0.40625 0.125 0  0.4375 0.125 0  0.46875 0.125 0  0.5 0.125 0  0.53125 0.125 0  0.5625 0.125 0  0.59375 0.125 0  0.625 0.125 0  0.65625 0.125 0  0.6875 0.125 0  0.71875 0.125 0  0.75 0.125 0  0.78125 0.125 0  0.8125 0.125 0  0.84375 0.125 0  0.875 0.125 0  0.90625 0.125 0  0.9375 0.125 0  0.96875 0.125 0  1 0.125 0  0 0.15625 0  0.03125 0.15625 0  0.0625 0.15625 0  0.09375 0.15625 0  0.125 0.15625 0  0.15625 0.15625 0  0.1875 0.15625 0  0.21875 0.15625 0  0.25 0.15625 0  0.28125 0.15625 0  0.3125 0.15625 0  0.34375 0.15625 0  0.375 0.15625 0  0.40625 0.15625 0  0.4375 0.15625 0  0.46875 0.15625 0  0.5 0.15625 0  0.53125 0.15625 0  0.5625 0.15625 0  0.59375 0.15625 0  0.625 0.15625 0  0.65625 0.15625 0  0.6875 0.15625 0  0.71875 0.15625 0  0.75 0.15625 0  0.78125 0.15625 0  0.8125 0.15625 0  0.84375 0.15625 0  0.875 0.15625 0  0.90625 0.15625 0  0.9375 0.15625 0  0.96875 0.15625 0  1 0.15625 0  0 0.1875 0  0.03125 0.1875 0  0.0625 0.1875 0  0.09375 0.1875 0  0.125 0.1875 0  0.15625 0.1875 0  0.1875 0.1875 0  0.21875 0.1875 0  0.25 0.1875 0  0.28125 0.1875 0  0.3125 0.1875 0  0.34375 0.1875 0  0.375 0.1875 0  0.40625 0.1875 0  0.4375 0.1875 0  0.46875 0.1875 0  0.5 0.1875 0  0.53125 0.1875 0  0.5625 0.1875 0  0.59375 0.1875 0  0.625 0.1875 0  0.65625 0.1875 0  0.6875 0.1875 0  0.71875 0.1875 0  0.75 0.1875 0  0.78125 0.1875 0  0.8125 0.1875 0  0.84375 0.1875 0  0.875 0.1875 0  0.90625 0.1875 0  0.9375 0.1875 0  0.96875 0.1875 0  1 0.1875 0  0 0.21875 0  0.03125 0.21875 0  0.0625 0.21875 0  0.09375 0.21875 0  0.125 0.21875 0  0.15625 0.21875 0  0.1875 0.21875 0  0.21875 0.21875 0  0.25 0.21875 0  0.28125 0.21875 0  0.3125 0.21875 0  0.34375 0.21875 0  0.375 0.21875 0  0.40625 0.21875 0  0.4375 0.21875 0  0.46875 0.21875 0  0.5 0.21875 0  0.53125 0.21875 0  0.5625 0.21875 0  0.59375 0.21875 0  0.625 0.21875 0  0.65625 0.21875 0  0.6875 0.21875 0  0.71875 0.21875 0  0.75 0.21875 0  0.78125 0.21875 0  0.8125 0.21875 0  0.84375 0.21875 0  0.875 0.21875 0  0.90625 0.21875 0  0.9375 0.21875 0  0.96875 0.21875 0  1 0.21875 0  0 0.25 0  0.03125 0.25 0  0.0625 0.25 0  0.09375 0.25 0  0.125 0.25 0  0.15625 0.25 0  0.1875 0.25 0  0.21875 0.25 0  0.25 0.25 0  0.28125 0.25 0  0.3125 0.25 0  0.34375 0.25 0  0.375 0.25 0  0.40625 0.25 0  0.4375 0.25 0  0.46875 0.25 0  0.5 0.25 0  0.53125 0.25 0  0.5625 0.25 0  0.59375 0.25 0  0.625 0.25 0  0.65625 0.25 0  0.6875 0.25 0  0.71875 0.25 0  0.75 0.25 0  0.78125 0.25 0  0.8125 0.25 0  0.84375 0.25 0  0.875 0.25 0  0.90625 0.25 0  0.9375 0.25 0  0.96875 0.25 0  1 0.25 0  0 0.28125 0  0.03125 0.28125 0  0.0625 0.28125 0  0.09375 0.28125 0  0.125 0.28125 0  0.15625 0.28125 0  0.1875 0.28125 0  0.21875 0.28125 0  0.25 0.28125 0  0.28125 0.28125 0  0.3125 0.28125 0  0.34375 0.28125 0  0.375 0.28125 0  0.40625 0.28125 0  0.4375 0.28125 0  0.46875 0.28125 0  0.5 0.28125 0  0.53125 0.28125 0  0.5625 0.28125 0  0.59375 0.28125 0  0.625 0.28125 0  0.65625 0.28125 0  0.6875 0.28125 0  0.71875 0.28125 0  0.75 0.28125 0  0.78125 0.28125 0  0.8125 0.28125 0  0.84375 0.28125 0  0.875 0.28125 0  0.90625 0.28125 0  0.9375 0.28125 0  0.96875 0.28125 0  1 0.28125 0  0 0.3125 0  0.03125 0.3125 0  0.0625 0.3125 0  0.09375 0.3125 0  0.125 0.3125 0  0.15625 0.3125 0  0.1875 0.3125 0  0.21875 0.3125 0  0.25 0.3125 0  0.28125 0.3125 0  0.3125 0.3125 0  0.34375 0.3125 0  0.375 0.3125 0  0.40625 0.3125 0  0.4375 0.3125 0  0.46875 0.3125 0  0.5 0.3125 0  0.53125 0.3125 0  0.5625 0.3125 0  0.59375 0.3125 0  0.625 0.3125 0  0.65625 0.3125 0  0.6875 0.3125 0  0.71875 0.3125 0  0.75 0.3125 0  0.78125 0.3125 0  0.8125 0.3125 0  0.84375 0.3125 0  0.875 0.3125 0  0.90625 0.3125 0  0.9375 0.3125 0  0.96875 0.3125 0  1 0.3125 0  0 0.34375 0  0.03125 0.34375 0  0.0625 0.34375 0  0.09375 0.34375 0  0.125 0.34375 0  0.15625 0.34375 0  0.1875 0.34375 0  0.21875 0.34375 0  0.25 0.34375 0  0.28125 0.34375 0  0.3125 0.34375 0  0.34375 0.34375 0  0.375 0.34375 0  0.40625 0.34375 0  0.4375 0.34375 0  0.46875 0.34375 0  0.5 0.34375 0  0.53125 0.34375 0  0.5625 0.34375 0  0.59375 0.34375 0  0.625 0.34375 0  0.65625 0.34375 0  0.6875 0.34375 0  0.71875 0.34375 0  0.75 0.34375 0  0.78125 0.34375 0  0.8125 0.34375 0  0.84375 0.34375 0  0.875 0.34375 0  0.90625 0.34375 0  0.9375 0.34375 0  0.96875 0.34375 0  1 0.34375 0  0 0.375 0  0.03125 0.375 0  0.0625 0.375 0  0.09375 0.375 0  0.125 0.375 0  0.15625 0.375 0  0.1875 0.375 0  0.21875 0.375 0  0.25 0.375 0  0.28125 0.375 0  0.3125 0.375 0  0.34375 0.375 0  0.375 0.375 0  0.40625 0.375 0  0.4375 0.375 0  0.46875 0.375 0  0.5 0.375 0  0.53125 0.375 0  0.5625 0.375 0  0.59375 0.375 0  0.625 0.375 0  0.65625 0.375 0  0.6875 0.375 0  0.71875 0.375 0  0.75 0.375 0  0.78125 0.375 0  0.8125 0.375 0  0.84375 0.375 0  0.875 0.375 0  0.90625 0.375 0  0.9375 0.375 0  0.96875 0.375 0  1 0.375 0  0 0.40625 0  0.03125 0.40625 0  0.0625 0.40625 0  0.09375 0.40625 0  0.125 0.40625 0  0.15625 0.40625 0  0.1875 0.40625 0  0.21875 0.40625 0  0.25 0.40625 0  0.28125 0.40625 0  0.3125 0.40625 0  0.34375 0.40625 0  0.375 0.40625 0  0.40625 0.40625 0  0.4375 0.40625 0  0.46875 0.40625 0  0.5 0.40625 0  0.53125 0.40625 0  0.5625 0.40625 0  0.59375 0.40625 0  0.625 0.40625 0  0.65625 0.40625 0  0.6875 0.40625 0  0.71875 0.40625 0  0.75 0.40625 0  0.78125 0.40625 0  0.8125 0.40625 0  0.84375 0.40625 0  0.875 0.40625 0  0.90625 0.40625 0  0.9375 0.40625 0  0.96875 0.40625 0  1 0.40625 0  0 0.4375 0  0.03125 0.4375 0  0.0625 0.4375 0  0.09375 0.4375 0  0.125 0.4375 0  0.15625 0.4375 0  0.1875 0.4375 0  0.21875 0.4375 0  0.25 0.4375 0  0.28125 0.4375 0  0.3125 0.4375 0  0.34375 0.4375 0  0.375 0.4375 0  0.40625 0.4375 0  0.4375 0.4375 0  0.46875 0.4375 0  0.5 0.4375 0  0.53125 0.4375 0  0.5625 0.4375 0  0.59375 0.4375 0  0.625 0.4375 0  0.65625 0.4375 0  0.6875 0.4375 0  0.71875 0.4375 0  0.75 0.4375 0  0.78125 0.4375 0  0.8125 0.4375 0  0.84375 0.4375 0  0.875 0.4375 0  0.90625 0.4375 0  0.9375 0.4375 0  0.96875 0.4375 0  1 0.4375 0  0 0.46875 0  0.03125 0.46875 0  0.0625 0.46875 0  0.09375 0.46875 0  0.125 0.46875 0  0.15625 0.46875 0  0.1875 0.46875 0  0.21875 0.46875 0  0.25 0.46875 0  0.28125 0.46875 0  0.3125 0.46875 0  0.34375 0.46875 0  0.375 0.46875 0  0.40625 0.46875 0  0.4375 0.46875 0  0.46875 0.46875 0  0.5 0.46875 0  0.53125 0.46875 0  0.5625 0.46875 0  0.59375 0.46875 0  0.625 0.46875 0  0.65625 0.46875 0  0.6875 0.46875 0  0.71875 0.46875 0  0.75 0.46875 0  0.78125 0.46875 0  0.8125 0.46875 0  0.84375 0.46875 0  0.875 0.46875 0  0.90625 0.46875 0  0.9375 0.46875 0  0.96875 0.46875 0  1 0.46875 0  0 0.5 0  0.03125 0.5 0  0.0625 0.5 0  0.09375 0.5 0  0.125 0.5 0  0.15625 0.5 0  0.1875 0.5 0  0.21875 0.5 0  0.25 0.5 0  0.28125 0.5 0  0.3125 0.5 0  0.34375 0.5 0  0.375 0.5 0  0.40625 0.5 0  0.4375 0.5 0  0.46875 0.5 0  0.5 0.5 0  0.53125 0.5 0  0.5625 0.5 0  0.59375 0.5 0  0.625 0.5 0  0.65625 0.5 0  0.6875 0.5 0  0.71875 0.5 0  0.75 0.5 0  0.78125 0.5 0  0.8125 0.5 0  0.84375 0.5 0  0.875 0.5 0  0.90625 0.5 0  0.9375 0.5 0  0.96875 0.5 0  1 0.5 0  0 0.53125 0  0.03125 0.53125 0  0.0625 0.53125 0  0.09375 0.53125 0  0.125 0.53125 0  0.15625 0.53125 0  0.1875 0.53125 0  0.21875 0.53125 0  0.25 0.53125 0  0.28125 0.53125 0  0.3125 0.53125 0  0.34375 0.53125 0  0.375 0.53125 0  0.40625 0.53125 0  0.4375 0.53125 0  0.46875 0.53125 0  0.5 0.53125 0  0.53125 0.53125 0  0.5625 0.53125 0  0.59375 0.53125 0  0.625 0.53125 0  0.65625 0.53125 0  0.6875 0.53125 0  0.71875 0.53125 0  0.75 0.53125 0  0.78125 0.531
[...]
<PointData  Scalars="u"> 
<DataArray  type="Float64"  Name="u"  format="ascii">0.0000000000000000e+00  0.0000000000000000e+00  0.0000000000000000e+00  0.0000000000000000e+00  0.0000000000000000e+00  0.0000000000000000e+00  0.0000000000000000e+00  0.0000000000000000e+00  0.0000000000000000e+00  0.0000000000000000e+00  0.0000000000000000e+00  0.0000000000000000e+00  0.0000000000000000e+00  0.0000000000000000e+00  0.0000000000000000e+00  0.0000000000000000e+00  0.0000000000000000e+00  0.0000000000000000e+00  0.0000000000000000e+00  0.0000000000000000e+00  0.0000000000000000e+00  0.0000000000000000e+00  0.0000000000000000e+00  0.0000000000000000e+00  0.0000000000000000e+00  0.0000000000000000e+00  0.0000000000000000e+00  0.0000000000000000e+00  0.0000000000000000e+00  0.0000000000000000e+00  0.0000000000000000e+00  0.0000000000000000e+00  0.0000000000000000e+00  0.0000000000000000e+00  1.2708187362244022e-02  2.5375141955232026e-02  3.7921360756555882e-02  5.0202200669170270e-02  6.1986469825432551e-02  7.2956234508711706e-02  8.2739453423157278e-02  9.0979016627784987e-02  9.7427812075496986e-02  1.0205331320297834e-01  1.0510070632582080e-01  1.0703072128949255e-01  1.0836613989023224e-01  1.0956742796555112e-01  1.1097202890702691e-01  1.1277378127230388e-01  1.1501051388868813e-01  1.1754103386796186e-01  1.2001203185699662e-01  1.2183751173359124e-01  1.2223245425805583e-01  1.2033982208699884e-01  1.1545399791930674e-01  1.0732797601404645e-01  9.6387623947397791e-02  8.3522968410396636e-02  6.9645129921556040e-02  5.5430452495539989e-02  4.1271118476956539e-02  2.7326863746300441e-02  1.3599880865826081e-02  0.0000000000000000e+00  0.0000000000000000e+00  2.5494524490146338e-02  5.0939840195603978e-02  7.6209028478879157e-02  1.0103369067471553e-01  1.2495056978453585e-01  1.4728957437335888e-01  1.6723569882046035e-01  1.8397791709822203e-01  1.9691641683905520e-01  2.0592337209053785e-01  2.1155326561031626e-01  2.1488405981418021e-01  2.1708887498600221e-01  2.1915205692546766e-01  2.2177099881300927e-01  2.2534681919070215e-01  2.2997825260075516e-01  2.3541494346617703e-01  2.4096844472085147e-01  2.4542928016782456e-01  2.4709545478399048e-01  2.4402422686999292e-01  2.3449315501275750e-01  2.1779304545886163e-01  1.9498727230491203e-01  1.6830405695387213e-01  1.3982635669769825e-01  1.1095958014565861e-01  8.2438048824878513e-02  5.4506686454697771e-02  2.7104173338138055e-02  0.0000000000000000e+00  0.0000000000000000e+00  3.8399654426762395e-02  7.6815102386217665e-02  1.1514135466287494e-01  1.5303878013585667e-01  1.8982195112794728e-01  2.2440334656814631e-01  2.5537190409663102e-01  2.8125130570288481e-01  3.0082548885713506e-01  3.1366125133184053e-01  3.2078537423312553e-01  3.2432817620626025e-01  3.2640410913111195e-01  3.2862540741782853e-01  3.3206283556037341e-01  3.3733321593731808e-01  3.4464334977369915e-01  3.5372098256846424e-01  3.6362096273802580e-01  3.7247408514673758e-01  3.7739896031011533e-01  3.7489408741154523e-01  3.6141703212800574e-01  3.3503395227913879e-01  2.9806043154561074e-01  2.5538543311268458e-01  2.1080712056965442e-01  1.6646061399447076e-01  1.2324395942110826e-01  8.1304594479369913e-02  4.0379354689828444e-02  0.0000000000000000e+00  0.0000000000000000e+00  5.1392781462778453e-02  1.0298308528552000e-01  1.5480810701652864e-01  2.0656724638357130e-01  2.5740611702107113e-01  3.0573564453651397e-01  3.4928297279190268e-01  3.8557310053699823e-01  4.1224488397040537e-01  4.2788185662952433e-01  4.3434727028065345e-01  4.3595620274122365e-01  4.3626324903519892e-01  4.3755727294993452e-01  4.4120123589267651e-01  4.4798742189601465e-01  4.5830090807424756e-01  4.7203952687663531e-01  4.8824639963765881e-01  5.0446868911178977e-01  5.1623559055118662e-01  5.1788567516967898e-01  5.0238523044022010e-01  4.6392652952132102e-01  4.0776916020056553e-01  3.4515363992715759e-01  2.8218559505712792e-01  2.2131467915442393e-01  1.6312007307195359e-01  1.0731131859582017e-01  5.3215082803125612e-02  0.0000000000000000e+00  0.0000000000000000e+00  6.4327983094162627e-02  1.2919291871805813e-01  1.9495956176130935e-01  2.6158205691430153e-01  3.2821411880549234e-01  3.9270576018297826e-01  4.5142848299006871e-01  5.0057885070941743e-01  5.3580630625578218e-01  5.5237127549675158e-01  5.5381591061997326e-01  5.4987742289943320e-01  5.4607615798866493e-01  5.4505114285387068e-01  5.4811049633743758e-01  5.5606338602649497e-01  5.6955562167642992e-01  5.8902188391174548e-01  6.1412844034000225e-01  6.4234448227116725e-01  6.6675523108005075e-01  6.7968464344925006e-01  6.6796296392243482e-01  6.1204278634641096e-01  5.2525193575007334e-01  4.3635674876933056e-01  3.5232303872435217e-01  2.7414174173093492e-01  2.0107423703782537e-01  1.3190226868532698e-01  6.5312029677748726e-02  0.0000000000000000e+00  0.0000000000000000e+00  7.6902555503605891e-02  1.5485362487046916e-01  2.3479432538295658e-01  3.1732504972535863e-01  4.0210726717705569e-01  4.8659262137594972e-01  5.6447412525724183e-01  6.3097061919617925e-01  6.7955470648218208e-01  6.9347348887954952e-01  6.8006490810405096e-01  6.6495269589987516e-01  6.5431804248822212e-01  6.4961522063035038e-01  6.5127373585795523e-01  6.5978936019611489e-01  6.7612072392011102e-01  7.0179960185990997e-01  7.3854174290791264e-01  7.8590538486684414e-01  8.3086450150922564e-01  8.5563217564359528e-01  8.5448051988802620e-01  7.8034647395120671e-01  6.4658822348745415e-01  5.2409592118802384e-01  4.1769102131996971e-01  3.2266519250333281e-01  2.3570676028804688e-01  1.5427704738103457e-01  7.6306519899147829e-02  0.0000000000000000e+00  0.0000000000000000e+00  8.8640914771481699e-02  1.7895312233298766e-01  2.7270154684761660e-01  3.7173727569375192e-01  4.7750030852418318e-01  5.8857490585220096e-01  6.9065365257083944e-01  7.6844721565930962e-01  8.3446520654697143e-01  8.5110879668528006e-01  8.0981384106232190e-01  7.7716412679596814e-01  7.5810553049415952e-01  7.4921529808561327e-01  7.4895710263920334e-01  7.5712062640264444e-01  7.7487361314706971e-01  8.0524464457227929e-01  8.5434812913691671e-01  9.2146283840518906e-01  9.9232545616586565e-01  1.0221224182476609e+00  1.0019918793467151e+00  9.0878464153056782e-01  7.4608850721054987e-01  5.9745248301214926e-01  4.7297232719808202e-01  3.6407535262916002e-01  2.6548111169958721e-01  1.7361812433038382e-01  8.5841837567146639e-02  0.0000000000000000e+00  0.0000000000000000e+00  9.8952799925320065e-02  2.0011471238610806e-01  3.0610082518499493e-01  4.2052522837989176e-01  5.4905948553667561e-01  6.8865599427961488e-01  8.1779288412212126e-01  8.9461085924412387e-01  9.3913605003738065e-01  9.6698897425761732e-01  9.2036526244991002e-01  8.7772474569771974e-01  8.5346936864287071e-01  8.4181530641657265e-01  8.3981418000886376e-01  8.4649744994606591e-01  8.6276677325898232e-01  8.9194125975991168e-01  9.4170303086995100e-01  1.0177361428306446e+00  1.0831102445019416e+00  1.1143101446343253e+00  1.0855926891121526e+00  9.8215342189385757e-01  8.0854512497150577e-01  6.4860173754546890e-01  5.1412689575239923e-01  3.9624904571044745e-01  2.8927008117040881e-01  1.8934484995481701e-01  9.3670510239076910e-02  0.0000000000000000e+00  0.0000000000000000e+00  1.0732618699203465e-01  2.1700642971437523e-01  3.3193576882187570e-01  4.5645832259068575e-01  5.9850260827043922e-01  7.6310700457770053e-01  8.9770736191311495e-01  9.6652943941134006e-01  1.0123633314976765e+00  1.0452713162408891e+00  1.0039596863314024e+00  9.6212840170487923e-01  9.3822006674321579e-01  9.2661243100805879e-01  9.2378451352743207e-01  9.2811407618826769e-01  9.3969454632073202e-01  9.6020783779353203e-01  9.9251875494065800e-01  1.0382155234625297e+00  1.0837642050461611e+00  1.1168764469013748e+00  1.0943896512332640e+00  1.0013456747315328e+00  8.3452825243537476e-01  6.7636164513844610e-01  5.4023559246755259e-01  4.1865852784513624e-01  3.0679910312862196e-01  2.0132381308366126e-01  9.9738704357264729e-02  0.0000000000000000e+00  0.0000000000000000e+00  1.1363278182637941e-01  2.2923872421219010e-01  3.4910731590623867e-01  4.7620521696728568e-01  6.1445280445792605e-01  7.6778279073619216e-01  9.1855137401530995e-01  1.0134729752248393e+00  1.0633923124378752e+00  1.0986909394020439e+00  1.0653270461942310e+00  1.0310562194506021e+00  1.0128661821415252e+00  1.0046792760318173e+00  1.0025841473086421e+00  1.0044786048277159e+00  1.0097752013820835e+00  1.0189327894487583e+00  1.0324724754089198e+00  1.0489542403772296e+00  1.0618044176855630e+00  1.0636375611401609e+00  1.0368442292604214e+00  9.6988613376036514e-01  8.2902905514465997e-01  6.8416704155761987e-01  5.5336531417100032e-01  4.3250656298079310e-01  3.1875690968882231e-01  2.0992985413431267e-01  1.0421170531807122e-01  0.0000000000000000e+00  0.0000000000000000e+00  1.1826111411541408e-01  2.3781226289417534e-01  3.5999439498150804e-01  4.8614022675470064e-01  6.1712751157891010e-01  7.5182455294976058e-01  8.8312854758506676e-01  9.9360799451574733e-01  1.0812113362435032e+00  1.1217741329449784e+00  1.1049736414251243e+00  1.0865036604515048e+00  1.0798820895342995e+00  1.0788930734235542e+00  1.0795698179205118e+00  1.0796125269824655e+00  1.0782177139378752e+00  1.0756072016643907e+00  1.0719837394457745e+00  1.0660428435963425e+00  1.0538134825679955e+00  1.0293914956090058e+00  9.8432872367219704e-01  9.1311862336559990e-01  8.0451296274264450e-01  6.7990210706731624e-01  5.5807728489044384e-01  4.4038351676883758e-01  3.2659967430907988e-01  2.1594412463990548e-01  1.0743065825043091e-01  0.0000000000000000e+00  0.0000000000000000e+00  1.2189589866816734e-01  2.4435876894784425e-01  3.6785210935176760e-01  4.9253274637832783e-01  6.1779866394101013e-01  7.4141272755408494e-01  8.5835230251700145e-01  9.6123897786153667e-01  1.0470079495465028e+00  1.1031619950643274e+00  1.1236862524272135e+00  1.1328075937464788e+00  1.1438013545457655e+00  1.1538784068608499e+00  1.1595758377082153e+00  1.1585538093494765e+00  1.1502592678074590e+00  1.1357224330353419e+00  1.1163162758004697e+00  1.0920228291550815e+00  1.0607167244759692e+00  1.0185496128710865e+00  9.6070017802811503e-01  8.8355319391450049e-01  7.8547755306592548e-01  6.7468740765398272e-01  5.6010175778904847e-01  4.4544624452226483e-01  3.3210077038243091e-01  2.2032393341427114e-01  1.0981580889144400e-01  0.0000000000000000e+00  0.0000000000000000e+00  1.2526013860533547e-01  2.5047470650718850e-01  3.7544010042521797e-01  4.9959446830227239e-01  6.2173290212082422e-01  7.3965471466295651e-01  8.4996399254367305e-01  9.4862801863547386e-01  1.0325069324669938e+00  1.0975816736028134e+00  1.1439214463655589e+00  1.1800269125010712e+00  1.2113511439118636e+00  1.2359179788331400e+00  1.2489507637368376e+00  1.2473927465423731e+00  1.2311423988195680e+00  1.2032851585473139e+00  1.1681048953185424e+00  1.1275851141324518e+00  1.0810478199372333e+00  1.0259260914138195e+00  9.5881645977369245e-01  8.7719278476832574e-01  7.8116876828783344e-01  6.7495708577151514e-01  5.6355540937132764e-01  4.5024753215008673e-01  3.3679440912356284e-01  2.2392978696101298e-01  1.1175235378220556e-01  0.0000000000000000e+00  0.0000000000000000e+00  1.2896908674688126e-01  2.5744119856886172e-01  3.8475000985188212e-01  5.0990095506897415e-01  6.3143634399771020e-01  7.4738306940625832e-01  8.5539830030144270e-01  9.5324572310675026e-01  1.0394661979971598e+00  1.1135337663631655e+00  1.1772571729683596e+00  1.2349313857828033e+00  1.2886059419181073e+00  1.3324815743137834e+00  1.3559209396919705e+00  1.3538986869254499e+00  1.3265348079717263e+00  1.2809780971841440e+00  1.2279448866384941e+00  1.1717904561111059e+00  1.1125055236261094e+00  1.0477348036062832e+00  9.7375637468760701e-01  8.8735357782550284e-01  7.8892355227140643e-01  6.8201009753672814e-01  5.7021508564825985e-01  4.5620737329390537e-01  3.4164071555672959e-01  2.2733260856447771e-01  1.1350288447662352e-01  0.0000000000000000e+00  0.0000000000000000e+00  1.3348333119144443e-01  2.6618714705976071e-01  3.9714411353850526e-01  5.2506059620823786e-01  6.4827440038143092e-01  7.6488724613256298e-01  8.7312380636382181e-01  9.7186436954971989e-01  1.0611692573606655e+00  1.1426043997202460e+00  1.2195781702854640e+00  1.2969364992902674e+00  1.3789381492861219e+00  1.4529121226159818e+00  1.4918547099071353e+00  1.4892111156184351e+00  1.4434455457670547e+00  1.3692791000713160e+00  1.2938445501331239e+00  1.2218939987107851e+00  1.1520660824028406e+00  1.0812209785062463e+00  1.0034211202721168e+00  9.1163129011956956e-01  8.0699993379774981e-01  6.9550644264105221e-01  5.8036547342459344e-01  4.6372581118501138e-01  3.4696163381738782e-01  2.3073680831433707e-01  1.1516352916795572e-01  0.0000000000000000e+00  0.0000000000000000e+00  1.3910384159550054e-01  2.7732990900632082e-01  4.1355108656539608e-01  5.4621393761185144e-01  6.7331402286793751e-01  7.9266215694118303e-01  9.0251180729691094e-01  1.0023329834481949e+00  1.0933839308495901e+00  1.1789980711520935e+00  1.2646107518495928e+00  1.3576749461316264e+00  1.4682357030304207e+00  1.5868463992040711e+00  1.6480035909685744e+00  1.6462298536819071e+00  1.5798773170710092e+00  1.4624030487796422e+00  1.3594994469930781e+00  1.2728572565311636e+00  1.1954204677214033e+00  1.1242617177687497e+00  1.0494852264562924e+00  9.5091954273954804e-01  8.3382598512909534e-01  7.1424199481005302e-01  5.9331095934347589e-01  4.7237965277376243e-01  3.5248297411918955e-01  2.3397274521472861e-01  1.1665269310300234e-01  0.0000000000000000e+00  0.0000000000000000e+00  1.4595836773953133e-01  2.9118428832429616e-01  4.3457149379060289e-01  5.7432677383768471e-01  7.0782970337453666e-01  8.3196426263290679e-01  9.4423302744762483e-01  1.0441252576864155e+00  1.1338215674563599e+00  1.2184190678075570e+00  1.3054988327471309e+00  1.4045924388070001e+00  1.5280933840020192e+00  1.6679069930254526e+00  1.7442522269820588e+00  1.7449597896985001e+00  1.6697746464935579e+00  1.5322184524914488e+00  1.4124743789835947e+00  1.3178566759522399e+00  1.2354885750899995e+00  1.1609510483761891e+00  1.0964088653787798e+00  9.9831131840347254e-01  8.6515717908156098e-01  7.3600093747172357e-01  6.0760811537442272e-01  4.8104396956962409e-01  3.5737778290978256e-01  2.3651264955660095e-01  1.1771732193297756e-01  0.0000000000000000e+00  0.0000000000000000e+00  1.5394287474429888e-01  3.0766592897339978e-01  4.6040245170349087e-01  6.1025337020187609e-01  7.5363902351107792e-01  8.8538809393527740e-01  1.0008742388436456e+00  1.0989030043984986e+00  1.1823695501072922e+00  1.2586007534692889e+00  1.3379033253870425e+00  1.4310332942709874e+00  1.5505744661339207e+00  1.6897686712879303e+00  1.7682800658477080e+00  1.7717126452156742e+00  1.6993434322305276e+00  1.5631187176028158e+00  1.4442239726083268e+00  1.3541155551223636e+00  1.2709456887528872e+00  1.1778728155742988e+00  1.0902806132762957e+00  9.9388710217517517e-01  8.8190417226578721e-01  7.5879997950867950e-01  6.2151137036705617e-01  4.8790637240765311e-01  3.6026067056393363e-01  2.3749232345631599e-01  1.1795331818308447e-01  0.0000000000000000e+00  0.0000000000000000e+00  1.6259706678964758e-01  3.2602911546712715e-01  4.9046362701625429e-01  6.5443646141010370e-01  8.1330123028771006e-01  9.5766754067187199e-01  1.0778717135330440e+00  1.1713760217201872e+00  1.2414707210325191e+00  1.2992118630478982e+00  1.3602229405029109e+00  1.4351682954874150e+00  1.5324876600246558e+00  1.6497953856505365e+00  1.7197015177149533e+00  1.7266001992818092e+00  1.6702969053223879e+00  1.5558240998366084e+00  1.4513268155610555e+00  1.3744189784758336e+00  1.3069798775180768e+00  1.1924613334409584e+00  1.0830732752859671e+00  9.8214020673137870e-01  8.8654690867992891e-01  7.8495906585059494e-01  6.3326657769671146e-01  4.8996274586415511e-01  3.5908583663601873e-01  2.3576742982100082e-01  1.1685935042493323e-01  0.0000000000000000e+00  0.0000000000000000e+00  1.7092640160842801e-01  3.4441129981671026e-01  5.2253631462133776e-01  7.0581785091131422e-01  8.9007632498248879e-01  1.0571771141044248e+00  1.1849727223462447e+00  1.2708698607514615e+00  1.3166437208899899e+00  1.3403512629290646e+00  1.3725457128022687e+00  1.4211244284267792e+00  1.4862426471106258e+00  1.5601205707271337e+00  1.6118209379237751e+00  1.6224287358636109e+00  1.5896707227151496e+00  1.5177431213435804e+00  1.4351059589516768e+00  1.3636442110974567e+00  1.3043263907853417e+00  1.1924359968790068e+00  1.0703490937073270e+00  9.6770714844498118e-01  8.7402936763939498e-01  7.7386847547930770e-01  6.2548903616324425e-01  4.8079210818352397e-01  3.5119245818287448e-01  2.3016545582994064e-01  1.1397565878979588e-01  0.0000000000000000e+00  0.0000000000000000e+00  1.7726896072800946e-01  3.5930925612124609e-01  5.5123269546053411e-01  7.5867044143738593e-01  9.7435477284685634e-01  1.1741405781870142e+00  1.3125053621340712e+00  1.3891874445137944e+00  1.4053374343230589e+00  1.3771395761827208e+00  1.3726024832851758e+00  1.3947723881399776e+00  1.4357150704648562e+00  1.4846523629102826e+00  1.5245461862118557e+00  1.5412090598973867e+00  1.5276561368764692e+00  1.4822613300443199e+00  1.4120011680069946e+00  1.3319483338443632e+00  1.2557927344496589e+00  1.1676648945748724e+00  1.0411474207287816e+00  9.3418236058185444e-01  8.4483151118242195e-01  7.2364547605846929e-01  5.9012481375347625e-01  4.5772734493238570e-01  3.3556176164975449e-01  2.2025439315115433e-01  1.0913421203212348e-01  0.0000000000000000e+00  0.0000000000000000e+00  1.7946412059746972e-01  3.6559962381813416e-01  5.6641337941273051e-01  7.9331394247261056e-01  1.0398612527335676e+00  1.2419179417215735e+00  1.3787842092558023e+00  1.4452290224232192e+00  1.4409575905342273e+00  1.3819689559923587e+00  1.3502247694778178e+00  1.3538902493987384e+00  1.3815519224302970e+00  1.4227913736447124e+00  1.4652655275035420e+00  1.4950728342028237e+00  1.5023114976440510e+00  1.4762726447257939e+00  1.4029996645200988e+00  1.3003323225466132e+00  1.1973647718212141e+00  1.0951938290771075e+00  9.8253683726872465e-01  8.7283308793641123e-01  7.7309487649084707e-01  6.6215313896237604e-01  5.4240594030926004e-01  4.2557276411998235e-01  3.1387060140523632e-01  2.0666209256854426e-01  1.0255319691461924e-01  0.0000000000000000e+00  0.0000000000000000e+00  1.7564165031299900e-01  3.5856096075733290e-01  5.5764890565623737e-01  7.8583152118179844e-01  1.0389267189770626e+00  1.2391987178743904e+00  1.3674891389002544e+00  1.4240852225619458e+00  1.4086843774544144e+00  1.3386941237714480e+00  1.2967820770273719e+00  1.2932255618156610e+00  1.3180722083616241e+00  1.3641251352870079e+00  1.4232952090302597e+00  1.4763217756972593e+00  1.5023494969347224e+00  1.4967342906365009e+00  1.4150504487006921e+00  1.2730005655321679e+00  1.1416986888814631e+00  1.0235966730617760e+00  9.1095072161294066e-01  8.0389621625343488e-01  7.0185157550659905e-01  5.9842772486141949e-01  4.9315216362263170e-01  3.8932407926848006e-01  2.8842011785407862e-01  1.9043950110103908e-01  9.4646300492471164e-02  0.0000000000000000e+00  0.0000000000000000e+00  1.6519263755546920e-01  3.3670458913078322e-01  5.2194254386131000e-01  7.3099521295499181e-01  9.6719766617505598e-01  1.1601122892988505e+00  1.2799915716506221e+00  1.3271036483239349e+00  1.3084183403733589e+00  1.2464630148906410e+00  1.2092593700608760e+00  1.2082660967879644e+00  1.2375337817446408e+00  1.2966916980040202e+00  1.3793436976481608e+00  1.4639535209913446e+00  1.5007937513414991e+00  1.4833133660510553e+00  1.3899090132449501e+00  1.2261876640511546e+00  1.0762942696511382e+00  9.4951481311664354e-01  8.3631338480609885e-01  7.3210901752213919e-01  6.3381632449487701e-01  5.3807113821628905e-01  4.4366010201226785e-01  3.5107096850358216e-01  2.6070496674912186e-01  1.7245360249426692e-01  8.5801332417630410e-02  0.0000000000000000e+00  0.0000000000000000e+00  1.4903831106444804e-01  3.0239679038272982e-01  4.6444094387922819e-01  6.3913022285748100e-01  8