<?xml version="1.0"?>
<VTKFile type="UnstructuredGrid"  version="0.1"  >
<UnstructuredGrid>
<Piece  NumberOfPoints="1089" NumberOfCells="2048">
<Points>
<DataArray  type="Float64"  NumberOfComponents="3"  format="ascii">0 0 0  0.03125 0 0  0.0625 0 0  0.09375 0 0  0.125 0 0  0.15625 0 0  0.1875 0 0  0.21875 0 0  0.25 0 0  0.28125 0 0  0.3125 0 0  0.34375 0 0  0.375 0 0  0.40625 0 0  0.4375 0 0  0.46875 0 0  0.5 0 0  0.53125 0 0  0.5625 0 0  0.59375 0 0  0.625 0 0  0.65625 0 0  0.6875 0 0  0.71875 0 0  0.75 0 0  0.78125 0 0  0.8125 0 0  0.84375 0 0  0.875 0 0  0.90625 0 0  0.9375 0 0  0.96875 0 0  1 0 0  0 0.03125 0  0.03125 0.03125 0  0.0625 0.03125 0  0.09375 0.03125 0  0.125 0.03125 0  0.15625 0.03125 0  0.1875 0.03125 0  0.21875 0.03125 0  0.25 0.03125 0  0.28125 0.03125 0  0.3125 0.03125 0  0.34375 0.03125 0  0.375 0.03125 0  0.40625 0.03125 0  0.4375 0.03125 0  0.46875 0.03125 0  0.5 0.03125 0  0.53125 0.03125 0  0.5625 0.03125 0  0.59375 0.03125 0  0.625 0.03125 0  0.65625 0.03125 0  0.6875 0.03125 0  0.71875 0.03125 0  0.75 0.03125 0  0.78125 0.03125 0  0.8125 0.03125 0  0.84375 0.03125 0  0.875 0.03125 0  0.90625 0.03125 0  0.9375 0.03125 0  0.96875 0.03125 0  1 0.03125 0  0 0.0625 0  0.03125 0.0625 0  0.0625 0.0625 0  0.09375 0.0625 0  0.125 0.0625 0  0.15625 0.0625 0  0.1875 0.0625 0  0.21875 0.0625 0  0.25 0.0625 0  0.28125 0.0625 0  0.3125 0.0625 0  0.34375 0.0625 0  0.375 0.0625 0  0.40625 0.0625 0  0.4375 0.0625 0  0.46875 0.0625 0  0.5 0.0625 0  0.53125 0.0625 0  0.5625 0.0625 0  0.59375 0.0625 0  0.625 0.0625 0  0.65625 0.0625 0  0.6875 0.0625 0  0.71875 0.0625 0  0.75 0.0625 0  0.78125 0.0625 0  0.8125 0.0625 0  0.84375 0.0625 0  0.875 0.0625 0  0.90625 0.0625 0  0.9375 0.0625 0  0.96875 0.0625 0  1 0.0625 0  0 0.09375 0  0.03125 0.09375 0  0.0625 0.09375 0  0.09375 0.09375 0  0.125 0.09375 0  0.15625 0.09375 0  0.1875 0.09375 0  0.21875 0.09375 0  0.25 0.09375 0  0.28125 0.09375 0  0.3125 0.09375 0  0.34375 0.09375 0  0.375 0.09375 0  0.40625 0.09375 0  0.4375 0.09375 0  0.46875 0.09375 0  0.5 0.09375 0  0.53125 0.09375 0  0.5625 0.09375 0  0.59375 0.09375 0  0.625 0.09375 0  0.65625 0.09375 0  0.6875 0.09375 0  0.71875 0.09375 0  0.75 0.09375 0  0.78125 0.09375 0  0.8125 0.09375 0  0.84375 0.09375 0  0.875 0.09375 0  0.90625 0.09375 0  0.9375 0.09375 0  0.96875 0.09375 0  1 0.09375 0  0 0.125 0  0.03125 0.125 0  0.0625 0.125 0  0.09375 0.125 0  0.125 0.125 0  0.15625 0.125 0  0.1875 0.125 0  0.21875 0.125 0  0.25 0.125 0  0.28125 0.125 0  0.3125 0.125 0  0.34375 0.125 0  0.375 0.125 0  0.40625 0.125 0  0.4375 0.125 0  0.46875 0.125 0  0.5 0.125 0  0.53125 0.125 0  0.5625 0.125 0  0.59375 0.125 0  0.625 0.125 0  0.65625 0.125 0  0.6875 0.125 0  0.71875 0.125 0  0.75 0.125 0  0.78125 0.125 0  0.8125 0.125 0  0.84375 0.125 0  0.875 0.125 0  0.90625 0.125 0  0.9375 0.125 0  0.96875 0.125 0  1 0.125 0  0 0.15625 0  0.03125 0.15625 0  0.0625 0.15625 0  0.09375 0.15625 0  0.125 0.15625 0  0.15625 0.15625 0  0.1875 0.15625 0  0.21875 0.15625 0  0.25 0.15625 0  0.28125 0.15625 0  0.3125 0.15625 0  0.34375 0.15625 0  0.375 0.15625 0  0.40625 0.15625 0  0.4375 0.15625 0  0.46875 0.15625 0  0.5 0.15625 0  0.53125 0.15625 0  0.5625 0.15625 0  0.59375 0.15625 0  0.625 0.15625 0  0.65625 0.15625 0  0.6875 0.15625 0  0.71875 0.15625 0  0.75 0.15625 0  0.78125 0.15625 0  0.8125 0.15625 0  0.84375 0.15625 0  0.875 0.15625 0  0.90625 0.15625 0  0.9375 0.15625 0  0.96875 0.15625 0  1 0.15625 0  0 0.1875 0  0.03125 0.1875 0  0.0625 0.1875 0  0.09375 0.1875 0  0.125 0.1875 0  0.15625 0.1875 0  0.1875 0.1875 0  0.21875 0.1875 0  0.25 0.1875 0  0.28125 0.1875 0  0.3125 0.1875 0  0.34375 0.1875 0  0.375 0.1875 0  0.40625 0.1875 0  0.4375 0.1875 0  0.46875 0.1875 0  0.5 0.1875 0  0.53125 0.1875 0  0.5625 0.1875 0  0.59375 0.1875 0  0.625 0.1875 0  0.65625 0.1875 0  0.6875 0.1875 0  0.71875 0.1875 0  0.75 0.1875 0  0.78125 0.1875 0  0.8125 0.1875 0  0.84375 0.1875 0  0.875 0.1875 0  0.90625 0.1875 0  0.9375 0.1875 0  0.96875 0.1875 0  1 0.1875 0  0 0.21875 0  0.03125 0.21875 0  0.0625 0.21875 0  0.09375 0.21875 0  0.125 0.21875 0  0.15625 0.21875 0  0.1875 0.21875 0  0.21875 0.21875 0  0.25 0.21875 0  0.28125 0.21875 0  0.3125 0.21875 0  0.34375 0.21875 0  0.375 0.21875 0  0.40625 0.21875 0  0.4375 0.21875 0  0.46875 0.21875 0  0.5 0.21875 0  0.53125 0.21875 0  0.5625 0.21875 0  0.59375 0.21875 0  0.625 0.21875 0  0.65625 0.21875 0  0.6875 0.21875 0  0.71875 0.21875 0  0.75 0.21875 0  0.78125 0.21875 0  0.8125 0.21875 0  0.84375 0.21875 0  0.875 0.21875 0  0.90625 0.21875 0  0.9375 0.21875 0  0.96875 0.21875 0  1 0.21875 0  0 0.25 0  0.03125 0.25 0  0.0625 0.25 0  0.09375 0.25 0  0.125 0.25 0  0.15625 0.25 0  0.1875 0.25 0  0.21875 0.25 0  0.25 0.25 0  0.28125 0.25 0  0.3125 0.25 0  0.34375 0.25 0  0.375 0.25 0  0.40625 0.25 0  0.4375 0.25 0  0.46875 0.25 0  0.5 0.25 0  0.53125 0.25 0  0.5625 0.25 0  0.59375 0.25 0  0.625 0.25 0  0.65625 0.25 0  0.6875 0.25 0  0.71875 0.25 0  0.75 0.25 0  0.78125 0.25 0  0.8125 0.25 0  0.84375 0.25 0  0.875 0.25 0  0.90625 0.25 0  0.9375 0.25 0  0.96875 0.25 0  1 0.25 0  0 0.28125 0  0.03125 0.28125 0  0.0625 0.28125 0  0.09375 0.28125 0  0.125 0.28125 0  0.15625 0.28125 0  0.1875 0.28125 0  0.21875 0.28125 0  0.25 0.28125 0  0.28125 0.28125 0  0.3125 0.28125 0  0.34375 0.28125 0  0.375 0.28125 0  0.40625 0.28125 0  0.4375 0.28125 0  0.46875 0.28125 0  0.5 0.28125 0  0.53125 0.28125 0  0.5625 0.28125 0  0.59375 0.28125 0  0.625 0.28125 0  0.65625 0.28125 0  0.6875 0.28125 0  0.71875 0.28125 0  0.75 0.28125 0  0.78125 0.28125 0  0.8125 0.28125 0  0.84375 0.28125 0  0.875 0.28125 0  0.90625 0.28125 0  0.9375 0.28125 0  0.96875 0.28125 0  1 0.28125 0  0 0.3125 0  0.03125 0.3125 0  0.0625 0.3125 0  0.09375 0.3125 0  0.125 0.3125 0  0.15625 0.3125 0  0.1875 0.3125 0  0.21875 0.3125 0  0.25 0.3125 0  0.28125 0.3125 0  0.3125 0.3125 0  0.34375 0.3125 0  0.375 0.3125 0  0.40625 0.3125 0  0.4375 0.3125 0  0.46875 0.3125 0  0.5 0.3125 0  0.53125 0.3125 0  0.5625 0.3125 0  0.59375 0.3125 0  0.625 0.3125 0  0.65625 0.3125 0  0.6875 0.3125 0  0.71875 0.3125 0  0.75 0.3125 0  0.78125 0.3125 0  0.8125 0.3125 0  0.84375 0.3125 0  0.875 0.3125 0  0.90625 0.3125 0  0.9375 0.3125 0  0.96875 0.3125 0  1 0.3125 0  0 0.34375 0  0.03125 0.34375 0  0.0625 0.34375 0  0.09375 0.34375 0  0.125 0.34375 0  0.15625 0.34375 0  0.1875 0.34375 0  0.21875 0.34375 0  0.25 0.34375 0  0.28125 0.34375 0  0.3125 0.34375 0  0.34375 0.34375 0  0.375 0.34375 0  0.40625 0.34375 0  0.4375 0.34375 0  0.46875 0.34375 0  0.5 0.34375 0  0.53125 0.34375 0  0.5625 0.34375 0  0.59375 0.34375 0  0.625 0.34375 0  0.65625 0.34375 0  0.6875 0.34375 0  0.71875 0.34375 0  0.75 0.34375 0  0.78125 0.34375 0  0.8125 0.34375 0  0.84375 0.34375 0  0.875 0.34375 0  0.90625 0.34375 0  0.9375 0.34375 0  0.96875 0.34375 0  1 0.34375 0  0 0.375 0  0.03125 0.375 0  0.0625 0.375 0  0.09375 0.375 0  0.125 0.375 0  0.15625 0.375 0  0.1875 0.375 0  0.21875 0.375 0  0.25 0.375 0  0.28125 0.375 0  0.3125 0.375 0  0.34375 0.375 0  0.375 0.375 0  0.40625 0.375 0  0.4375 0.375 0  0.46875 0.375 0  0.5 0.375 0  0.53125 0.375 0  0.5625 0.375 0  0.59375 0.375 0  0.625 0.375 0  0.65625 0.375 0  0.6875 0.375 0  0.71875 0.375 0  0.75 0.375 0  0.78125 0.375 0  0.8125 0.375 0  0.84375 0.375 0  0.875 0.375 0  0.90625 0.375 0  0.9375 0.375 0  0.96875 0.375 0  1 0.375 0  0 0.40625 0  0.03125 0.40625 0  0.0625 0.40625 0  0.09375 0.40625 0  0.125 0.40625 0  0.15625 0.40625 0  0.1875 0.40625 0  0.21875 0.40625 0  0.25 0.40625 0  0.28125 0.40625 0  0.3125 0.40625 0  0.34375 0.40625 0  0.375 0.40625 0  0.40625 0.40625 0  0.4375 0.40625 0  0.46875 0.40625 0  0.5 0.40625 0  0.53125 0.40625 0  0.5625 0.40625 0  0.59375 0.40625 0  0.625 0.40625 0  0.65625 0.40625 0  0.6875 0.40625 0  0.71875 0.40625 0  0.75 0.40625 0  0.78125 0.40625 0  0.8125 0.40625 0  0.84375 0.40625 0  0.875 0.40625 0  0.90625 0.40625 0  0.9375 0.40625 0  0.96875 0.40625 0  1 0.40625 0  0 0.4375 0  0.03125 0.4375 0  0.0625 0.4375 0  0.09375 0.4375 0  0.125 0.4375 0  0.15625 0.4375 0  0.1875 0.4375 0  0.21875 0.4375 0  0.25 0.4375 0  0.28125 0.4375 0  0.3125 0.4375 0  0.34375 0.4375 0  0.375 0.4375 0  0.40625 0.4375 0  0.4375 0.4375 0  0.46875 0.4375 0  0.5 0.4375 0  0.53125 0.4375 0  0.5625 0.4375 0  0.59375 0.4375 0  0.625 0.4375 0  0.65625 0.4375 0  0.6875 0.4375 0  0.71875 0.4375 0  0.75 0.4375 0  0.78125 0.4375 0  0.8125 0.4375 0  0.84375 0.4375 0  0.875 0.4375 0  0.90625 0.4375 0  0.9375 0.4375 0  0.96875 0.4375 0  1 0.4375 0  0 0.46875 0  0.03125 0.46875 0  0.0625 0.46875 0  0.09375 0.46875 0  0.125 0.46875 0  0.15625 0.46875 0  0.1875 0.46875 0  0.21875 0.46875 0  0.25 0.46875 0  0.28125 0.46875 0  0.3125 0.46875 0  0.34375 0.46875 0  0.375 0.46875 0  0.40625 0.46875 0  0.4375 0.46875 0  0.46875 0.46875 0  0.5 0.46875 0  0.53125 0.46875 0  0.5625 0.46875 0  0.59375 0.46875 0  0.625 0.46875 0  0.65625 0.46875 0  0.6875 0.46875 0  0.71875 0.46875 0  0.75 0.46875 0  0.78125 0.46875 0  0.8125 0.46875 0  0.84375 0.46875 0  0.875 0.46875 0  0.90625 0.46875 0  0.9375 0.46875 0  0.96875 0.46875 0  1 0.46875 0  0 0.5 0  0.03125 0.5 0  0.0625 0.5 0  0.09375 0.5 0  0.125 0.5 0  0.15625 0.5 0  0.1875 0.5 0  0.21875 0.5 0  0.25 0.5 0  0.28125 0.5 0  0.3125 0.5 0  0.34375 0.5 0  0.375 0.5 0  0.40625 0.5 0  0.4375 0.5 0  0.46875 0.5 0  0.5 0.5 0  0.53125 0.5 0  0.5625 0.5 0  0.59375 0.5 0  0.625 0.5 0  0.65625 0.5 0  0.6875 0.5 0  0.71875 0.5 0  0.75 0.5 0  0.78125 0.5 0  0.8125 0.5 0  0.84375 0.5 0  0.875 0.5 0  0.90625 0.5 0  0.9375 0.5 0  0.96875 0.5 0  1 0.5 0  0 0.53125 0  0.03125 0.53125 0  0.0625 0.53125 0  0.09375 0.53125 0  0.125 0.53125 0  0.15625 0.53125 0  0.1875 0.53125 0  0.21875 0.53125 0  0.25 0.53125 0  0.28125 0.53125 0  0.3125 0.53125 0  0.34375 0.53125 0  0.375 0.53125 0  0.40625 0.53125 0  0.4375 0.53125 0  0.46875 0.53125 0  0.5 0.53125 0  0.53125 0.53125 0  0.5625 0.53125 0  0.59375 0.53125 0  0.625 0.53125 0  0.65625 0.53125 0  0.6875 0.53125 0  0.71875 0.53125 0  0.75 0.53125 0  0.78125 0.531
[...]
<PointData  Scalars="u"> 
<DataArray  type="Float64"  Name="u"  format="ascii">0.0000000000000000e+00  0.0000000000000000e+00  0.0000000000000000e+00  0.0000000000000000e+00  0.0000000000000000e+00  0.0000000000000000e+00  0.0000000000000000e+00  0.0000000000000000e+00  0.0000000000000000e+00  0.0000000000000000e+00  0.0000000000000000e+00  0.0000000000000000e+00  0.0000000000000000e+00  0.0000000000000000e+00  0.0000000000000000e+00  0.0000000000000000e+00  0.0000000000000000e+00  0.0000000000000000e+00  0.0000000000000000e+00  0.0000000000000000e+00  0.0000000000000000e+00  0.0000000000000000e+00  0.0000000000000000e+00  0.0000000000000000e+00  0.0000000000000000e+00  0.0000000000000000e+00  0.0000000000000000e+00  0.0000000000000000e+00  0.0000000000000000e+00  0.0000000000000000e+00  0.0000000000000000e+00  0.0000000000000000e+00  0.0000000000000000e+00  0.0000000000000000e+00  1.4182267422922104e-02  2.8281394672679417e-02  4.2190185379991550e-02  5.5746009418731986e-02  6.8714900625771513e-02  8.0793760433118908e-02  9.1640219803768616e-02  1.0093249915282190e-01  1.0844987674844624e-01  1.1415897397053441e-01  1.1826367598100569e-01  1.2115184336924589e-01  1.2326706590978741e-01  1.2500290409167411e-01  1.2664864237595380e-01  1.2836853027478051e-01  1.3018917121766882e-01  1.3198015104130714e-01  1.3342871458654393e-01  1.3402719481063799e-01  1.3310688726860584e-01  1.2994897631702482e-01  1.2397308601959355e-01  1.1498935064892989e-01  1.0336929282994051e-01  8.9873847932823672e-02  7.5291589915012586e-02  6.0225433336752489e-02  4.5046571363637732e-02  2.9932801863998482e-02  1.4928607775591234e-02  0.0000000000000000e+00  0.0000000000000000e+00  2.8397832400761183e-02  5.6660613571731286e-02  8.4598467965891391e-02  1.1190269750109311e-01  1.3810428316767320e-01  1.6256870347220681e-01  1.8455310408700940e-01  2.0333501795294018e-01  2.1838758357185467e-01  2.2959378696232757e-01  2.3741297220743487e-01  2.4274645892091384e-01  2.4658436576975801e-01  2.4976564881412114e-01  2.5288791969541929e-01  2.5629138458811956e-01  2.6004861772836002e-01  2.6392514189034250e-01  2.6731022812026606e-01  2.6915809443569910e-01  2.6802475378414625e-01  2.6228852903846789e-01  2.5053998765365670e-01  2.3222924761806302e-01  2.0826880528257163e-01  1.8053790626164698e-01  1.5082273463884510e-01  1.2037213058507530e-01  8.9888486294413816e-02  5.9666774737693981e-02  2.9741346465665376e-02  0.0000000000000000e+00  0.0000000000000000e+00  4.2655143055428855e-02  8.5185279321670193e-02  1.2737494020542398e-01  1.6881202383510127e-01  2.0879983486581569e-01  2.4631848292084171e-01  2.8009975960328709e-01  3.0884896850356786e-01  3.3152124593089399e-01  3.4774915057482159e-01  3.5837822097817490e-01  3.6517049971263787e-01  3.6989640495477799e-01  3.7392529910055167e-01  3.7817552669824495e-01  3.8317145016298676e-01  3.8907073810731546e-01  3.9560576718257395e-01  4.0193080493158417e-01  4.0643203327463601e-01  4.0667896897613065e-01  3.9976740981156406e-01  3.8282011020594447e-01  3.5432685552323118e-01  3.1623082116615936e-01  2.7257881697435293e-01  2.2658928204728146e-01  1.8015962235599289e-01  1.3418110830599636e-01  8.8918184374162060e-02  4.4281640687708818e-02  0.0000000000000000e+00  0.0000000000000000e+00  5.6899631914490933e-02  1.1378150021940728e-01  1.7050338316972338e-01  2.2663916596980138e-01  2.8130634913369468e-01  3.3303008924327682e-01  3.7980172537906787e-01  4.1948489201943295e-01  4.5009436776843159e-01  4.7047721355190586e-01  4.8215500616606588e-01  4.8864754422640461e-01  4.9290418250167223e-01  4.9686627815866319e-01  5.0171020200626648e-01  5.0811395370604917e-01  5.1637803211389077e-01  5.2635643924852338e-01  5.3716419884719580e-01  5.4667877276381360e-01  5.5115578709178803e-01  5.4592643861532808e-01  5.2532351189865978e-01  4.8479676900825364e-01  4.2865677496867782e-01  3.6602776491441269e-01  3.0203592391083117e-01  2.3890249939189895e-01  1.7732420794259685e-01  1.1726133879330047e-01  5.8331420121475214e-02  0.0000000000000000e+00  0.0000000000000000e+00  7.0978554107954964e-02  1.4217673450943175e-01  2.1367670706641001e-01  2.8521200554047277e-01  3.5585444593689558e-01  4.2362361756082972e-01  4.8537513676775984e-01  5.3786393063832505e-01  5.7749441290370818e-01  6.0048954524417963e-01  6.0971105618280552e-01  6.1298425888675945e-01  6.1485760164815972e-01  6.1758965327877624e-01  6.2234082799506052e-01  6.2981756512652332e-01  6.4053033035446749e-01  6.5474840481910179e-01  6.7205237362708636e-01  6.9020982073284898e-01  7.0348845708345131e-01  7.0555926980595340e-01  6.8588729047487185e-01  6.2915765854755701e-01  5.4606487504693491e-01  4.5957478918636696e-01  3.7560132120903611e-01  2.9529767644049937e-01  2.1837499787031328e-01  1.4409723427218996e-01  7.1601537184899061e-02  0.0000000000000000e+00  0.0000000000000000e+00  8.4608765588721407e-02  1.6981568757244989e-01  2.5612847046979009e-01  3.4375321599815611e-01  4.3211085107901470e-01  5.1883843982062849e-01  5.9860940520071804e-01  6.6733803771115263e-01  7.1967302553897361e-01  7.4240807884434701e-01  7.4139563177515988e-01  7.3696427258634201e-01  7.3424864337639129e-01  7.3461897154949407e-01  7.3856790602107447e-01  7.4656752104939261e-01  7.5938007478425751e-01  7.7813602583242936e-01  8.0400914104378418e-01  8.3636176482539260e-01  8.6460804826425874e-01  8.7442721686892355e-01  8.6104081500564977e-01  7.8760791274886566e-01  6.6491404277289268e-01  5.4899766517748905e-01  4.4421569917738746e-01  3.4732845925105554e-01  2.5606906126100509e-01  1.6869026147253174e-01  8.3753786035422634e-02  0.0000000000000000e+00  0.0000000000000000e+00  9.7367289982397423e-02  1.9580227040901738e-01  2.9643662660491510e-01  4.0042903393032547e-01  5.0855008244459088e-01  6.1925015975747988e-01  7.2084747744697020e-01  8.0096019857647283e-01  8.6908867331516604e-01  8.9570585000995306e-01  8.7422872915137462e-01  8.5707813838255242e-01  8.4849354501689278e-01  8.4606013612889241e-01  8.4874134013019864e-01  8.5646028668335783e-01  8.7014780849292583e-01  8.9211294717391465e-01  9.2697306796911239e-01  9.7385509961558847e-01  1.0211555128849572e+00  1.0333624720355663e+00  1.0032082172836152e+00  9.1255037757656110e-01  7.6458567835503910e-01  6.2534950093217601e-01  5.0341580581529977e-01  3.9257558633778472e-01  2.8905018182773029e-01  1.9030326241093423e-01  9.4461757773290633e-02  0.0000000000000000e+00  0.0000000000000000e+00  1.0874385892285364e-01  2.1895755890517657e-01  3.3241758210816297e-01  4.5163995214851338e-01  5.8067255283651109e-01  7.1662811205576837e-01  8.4208736619410085e-01  9.2382142088402808e-01  9.7719795761889094e-01  1.0142935025451534e+00  9.9001351828922046e-01  9.6608421721492865e-01  9.5418008675742749e-01  9.5005468950493832e-01  9.5156428909295621e-01  9.5803427420105958e-01  9.7018752893603377e-01  9.9056770814718564e-01  1.0250333084305641e+00  1.0777355778109889e+00  1.1193664010690521e+00  1.1310578255940567e+00  1.0923339532977279e+00  9.9158212233070087e-01  8.3276969383367194e-01  6.8219243311106725e-01  5.4980812523247335e-01  4.2921098789375700e-01  3.1632142175590555e-01  2.0840963388493441e-01  1.0349686019488984e-01  0.0000000000000000e+00  0.0000000000000000e+00  1.1830210287190217e-01  2.3816254309842846e-01  3.6155073319714764e-01  4.9152940199053630e-01  6.3388912795793650e-01  7.9203378273178282e-01  9.2422629404880241e-01  1.0019312827754783e+00  1.0582879999659727e+00  1.1010390710493165e+00  1.0823392096032183e+00  1.0601695137577254e+00  1.0493592227798474e+00  1.0457794545225707e+00  1.0468237388443797e+00  1.0512944775361281e+00  1.0592792144874992e+00  1.0720489116947116e+00  1.0917190663362750e+00  1.1192920941296756e+00  1.1438256411070775e+00  1.1553047427032510e+00  1.1196762716671109e+00  1.0252031794017433e+00  8.6974457519643544e-01  7.1846591481143418e-01  5.8256773814697826e-01  4.5674233063964242e-01  3.3761125250171248e-01  2.2286837528910117e-01  1.1079893891182925e-01  0.0000000000000000e+00  0.0000000000000000e+00  1.2592785905159448e-01  2.5308273303037421e-01  3.8292627014076464e-01  5.1741331189079787e-01  6.5918114204344025e-01  8.1077779055037036e-01  9.5778051484252114e-01  1.0579478905696496e+00  1.1193969449112176e+00  1.1657237042949884e+00  1.1547329884088697e+00  1.1397082401562684e+00  1.1342930727444229e+00  1.1339643723382584e+00  1.1357806198033589e+00  1.1381514225374973e+00  1.1406304308279775e+00  1.1435486814710298e+00  1.1472266484739855e+00  1.1503689109969881e+00  1.1475830631555619e+00  1.1328122778729492e+00  1.0920732621178293e+00  1.0163283263916956e+00  8.7951904470331932e-01  7.3692088523277066e-01  6.0334673049540311e-01  4.7612749690408840e-01  3.5346506608844347e-01  2.3397431418967068e-01  1.1649723421036860e-01  0.0000000000000000e+00  0.0000000000000000e+00  1.3193520608860806e-01  2.6452349146120840e-01  3.9844578490164279e-01  5.3434587517513443e-01  6.7246299818960131e-01  8.1140133034708428e-01  9.4504059779106397e-01  1.0592101763766029e+00  1.1519113155902307e+00  1.2040496447284268e+00  1.2075600023621171e+00  1.2062187277029663e+00  1.2108717107772335e+00  1.2168225038116676e+00  1.2210408501290297e+00  1.2217593560475752e+00  1.2183670875790538e+00  1.2110419146142775e+00  1.1999140841809766e+00  1.1838799944073808e+00  1.1596949052165639e+00  1.1225852869074706e+00  1.0658429420144535e+00  9.8520737844265305e-01  8.7215870438143750e-01  7.4394363832976562e-01  6.1585943500151574e-01  4.8948679409068352e-01  3.6507960047133170e-01  2.4237107823283588e-01  1.2087316972453918e-01  0.0000000000000000e+00  0.0000000000000000e+00  1.3688674368295242e-01  2.7381927187300420e-01  4.1075336717617755e-01  5.4738218549968598e-01  6.8277319538173975e-01  8.1468105180223771e-01  9.3866543693342896e-01  1.0484790076302111e+00  1.1413524371676920e+00  1.2072848898770190e+00  1.2415221733209201e+00  1.2631312662303475e+00  1.2826479205346066e+00  1.2979644697383790e+00  1.3063818669263627e+00  1.3060718200202874e+00  1.2966297831027509e+00  1.2789161526265687e+00  1.2540573499337804e+00  1.2220564358597721e+00  1.1812239260358233e+00  1.1285055881009025e+00  1.0601253926168783e+00  9.7336000421548319e-01  8.6720139069311797e-01  7.4851104752156039e-01  6.2478209445730704e-01  4.9941932197450201e-01  3.7392482259759702e-01  2.4885597921632269e-01  1.2427774201110739e-01  0.0000000000000000e+00  0.0000000000000000e+00  1.4138059787796203e-01  2.8228735894283158e-01  4.2211820169541869e-01  5.5997674385544383e-01  6.9444761802482669e-01  8.2332733137213732e-01  9.4348881144270702e-01  1.0513550868361585e+00  1.1441377965705635e+00  1.2184758797788773e+00  1.2743330955243428e+00  1.3183717173158964e+00  1.3548786571272773e+00  1.3822657872961381e+00  1.3967187522794826e+00  1.3958053365062772e+00  1.3794877694906040e+00  1.3503026728101892e+00  1.3117564615712949e+00  1.2655295112857916e+00  1.2111713506064781e+00  1.1467240672961605e+00  1.0695933949574272e+00  9.7794940187140877e-01  8.7214919896187504e-01  7.5587796195506141e-01  6.3350077205777100e-01  5.0803855327157033e-01  3.8127794590773578e-01  2.5414842217324773e-01  1.2703386809318673e-01  0.0000000000000000e+00  0.0000000000000000e+00  1.4592560590995168e-01  2.9098691977560293e-01  4.3418732164398588e-01  5.7426677150623384e-01  7.0960052172250043e-01  8.3817127784645895e-01  9.5770578135580864e-01  1.0660763213936892e+00  1.1618510188042039e+00  1.2444254666083447e+00  1.3151086048007263e+00  1.3771990344727696e+00  1.4322051031469230e+00  1.4754149684157067e+00  1.4983114418656862e+00  1.4968588701585297e+00  1.4712045504961293e+00  1.4271498412812322e+00  1.3733583742070641e+00  1.3134849540154303e+00  1.2476993956782025e+00  1.1742828645555716e+00  1.0904398717546422e+00  9.9382422051376029e-01  8.8501777694832540e-01  7.6716112126782465e-01  6.4349220560915488e-01  5.1652185559848351e-01  3.8793639268043828e-01  2.5872369021887531e-01  1.2936057003850032e-01  0.0000000000000000e+00  0.0000000000000000e+00  1.5089665763187451e-01  3.0067482714961674e-01  4.4807299527740624e-01  5.9157196247093069e-01  7.2937088583269472e-01  8.5950988807628170e-01  9.8017740918522200e-01  1.0901535750164122e+00  1.1892366112815180e+00  1.2784931963085280e+00  1.3604921575344757e+00  1.4389288257934116e+00  1.5169559303426219e+00  1.5843534192089783e+00  1.6196586999849507e+00  1.6175531901809195e+00  1.5768928529840665e+00  1.5094970500813081e+00  1.4370128735094931e+00  1.3635274904207595e+00  1.2882355763478797e+00  1.2088581680210870e+00  1.1208921568229417e+00  1.0190110323722510e+00  9.0438909894238295e-01  7.8206958087311806e-01  6.5497206773455108e-01  5.2518260885543011e-01  3.9415429249673140e-01  2.6274362749243035e-01  1.3133408405705110e-01  0.0000000000000000e+00  0.0000000000000000e+00  1.5652528334141363e-01  3.1182742838815752e-01  4.6449352404403588e-01  6.1277391394758030e-01  7.5457556768009137e-01  8.8769616811169016e-01  1.0103491474324755e+00  1.1217994114648182e+00  1.2228226191202600e+00  1.3159134293636361e+00  1.4052587290446006e+00  1.4965955347962341e+00  1.5975594255729002e+00  1.7003427620927218e+00  1.7532369009393403e+00  1.7516629817672993e+00  1.6943765044934418e+00  1.5922904386709471e+00  1.4973371163545677e+00  1.4113251458232925e+00  1.3290595521777886e+00  1.2484683424973464e+00  1.1619726760421671e+00  1.0539692200396771e+00  9.2884865482405854e-01  7.9952692850444274e-01  6.6730167783035699e-01  5.3362439412706941e-01  3.9967329135697249e-01  2.6604849008763354e-01  1.3287771453211913e-01  0.0000000000000000e+00  0.0000000000000000e+00  1.6288495923548124e-01  3.2464032716035585e-01  4.8384712612851744e-01  6.3853811712693720e-01  7.8610242259503182e-01  9.2357927278200436e-01  1.0485777917832184e+00  1.1603886613879633e+00  1.2605483481141586e+00  1.3529883134917524e+00  1.4436285554907495e+00  1.5398638378135621e+00  1.6511629987336969e+00  1.7707225529827939e+00  1.8355701048213688e+00  1.8358073559083365e+00  1.7712471090988084e+00  1.6528835653326941e+00  1.5440644050830115e+00  1.4510729203312505e+00  1.3642011234023002e+00  1.2802476777862348e+00  1.2011097484605837e+00  1.0929244696177829e+00  9.5478191848471616e-01  8.1757782763420173e-01  6.7918683653523548e-01  5.4084703874332174e-01  4.0376307056361499e-01  2.6817308197047507e-01  1.3376837969674513e-01  0.0000000000000000e+00  0.0000000000000000e+00  1.6984208809748461e-01  3.3894662402627379e-01  5.0614455465064345e-01  6.6935426297842793e-01  8.2516522550031457e-01  9.6895218376092185e-01  1.0966180499516487e+00  1.2069148460700150e+00  1.3019773101783858e+00  1.3875535164470982e+00  1.4717735475788816e+00  1.5630461189614331e+00  1.6710180619136830e+00  1.7899364574014478e+00  1.8563671127249843e+00  1.8586190215421947e+00  1.7960906327868280e+00  1.6785116055353502e+00  1.5700159510354124e+00  1.4801513498164229e+00  1.3922070088475278e+00  1.2932966904430441e+00  1.1957414007936715e+00  1.0886311716065955e+00  9.6691579941410033e-01  8.3439713952534067e-01  6.8905253964352198e-01  5.4527651330640459e-01  4.0523013521175844e-01  2.6837227417189546e-01  1.3365677489543820e-01  0.0000000000000000e+00  0.0000000000000000e+00  1.7695673439089821e-01  3.5400708563142153e-01  5.3070764454030728e-01  7.0528771070881235e-01  8.7344070042464073e-01  1.0271581654577684e+00  1.1583349199851714e+00  1.2646532741503711e+00  1.3485978160882497e+00  1.4189264796469963e+00  1.4880343907420961e+00  1.5643358574458996e+00  1.6542884688377830e+00  1.7556103867289892e+00  1.8150284623261845e+00  1.8198905732610080e+00  1.7699451612853403e+00  1.6694212082099762e+00  1.5721767489796237e+00  1.4925585495892242e+00  1.4167797084060572e+00  1.3009350330299367e+00  1.1862179395307539e+00  1.0755911181030233e+00  9.6689711776594522e-01  8.5152208101307170e-01  6.9530232963998939e-01  5.4439471173398957e-01  4.0235687789773067e-01  2.6567780682508502e-01  1.3211584621184949e-01  0.0000000000000000e+00  0.0000000000000000e+00  1.8334508532066360e-01  3.6815470815260665e-01  5.5549123711733916e-01  7.4511086619434908e-01  9.3300273894176011e-01  1.1042161276458997e+00  1.2407930559598959e+00  1.3403405747860297e+00  1.4042000405492061e+00  1.4467165508026119e+00  1.4920990979215725e+00  1.5466963325239185e+00  1.6105484546023279e+00  1.6772272801711441e+00  1.7220298306515482e+00  1.7297245457267296e+00  1.6983582702752755e+00  1.6313674626394166e+00  1.5514478728064856e+00  1.4762445384889804e+00  1.4069433871486423e+00  1.2932944001711779e+00  1.1688499240612875e+00  1.0572310348392340e+00  9.5055592160741120e-01  8.3697339733428577e-01  6.8414045140392854e-01  5.3303176053830703e-01  3.9296258503044407e-01  2.5911207115030932e-01  1.2875745683397077e-01  0.0000000000000000e+00  0.0000000000000000e+00  1.8758485723723273e-01  3.7840077725108678e-01  5.7590102399025700e-01  7.8383067469831325e-01  9.9569681156124068e-01  1.1917406547026337e+00  1.3356449571400661e+00  1.4268066515246023e+00  1.4661166101157446e+00  1.4665689457589286e+00  1.4818070158626140e+00  1.5145029213699437e+00  1.5584378872202627e+00  1.6049008288972277e+00  1.6401171864072037e+00  1.6525499053262749e+00  1.6364726689535831e+00  1.5906184078324281e+00  1.5207354997514988e+00  1.4391040505253812e+00  1.3569430959899915e+00  1.2622756177077041e+00  1.1348996560300277e+00  1.0205802236989829e+00  9.1814561115890903e-01  7.8917307558714833e-01  6.4917454298419286e-01  5.0902942161914588e-01  3.7620181064613628e-01  2.4830761287747583e-01  1.2343618342837728e-01  0.0000000000000000e+00  0.0000000000000000e+00  1.8786879983994612e-01  3.8049378551628837e-01  5.8361873642351925e-01  8.0551098808163113e-01  1.0402771626498255e+00  1.2368138093381946e+00  1.3781523559176021e+00  1.4597984723081907e+00  1.4815476699919652e+00  1.4563308834909510e+00  1.4488199827812407e+00  1.4657944079264664e+00  1.4983846281728024e+00  1.5382145329314985e+00  1.5752130283452850e+00  1.5980373497834481e+00  1.5985799991443570e+00  1.5683272617949391e+00  1.4965277753977504e+00  1.3976081361646346e+00  1.2949374567087362e+00  1.1899251123664003e+00  1.0742267300037283e+00  9.5879859534881118e-01  8.4947551105628738e-01  7.2995426956840936e-01  6.0236731822222378e-01  4.7617935106664716e-01  3.5340589158163366e-01  2.3376608467054821e-01  1.1632722091896715e-01  0.0000000000000000e+00  0.0000000000000000e+00  1.8265277405695207e-01  3.7056821394560213e-01  5.7020563034104932e-01  7.9104134514801727e-01  1.0289525862367115e+00  1.2221776870020555e+00  1.3549369391468968e+00  1.4270659524025116e+00  1.4383876481797360e+00  1.4029757512485701e+00  1.3861065323693300e+00  1.3962751863660063e+00  1.4258164831721716e+00  1.4689240401865573e+00  1.5188682032650263e+00  1.5600647019435538e+00  1.5757371034376093e+00  1.5619958966843657e+00  1.4841763565167589e+00  1.3550324284572088e+00  1.2308882143165589e+00  1.1143244726844510e+00  9.9980200832034338e-01  8.8784924388189146e-01  7.7834566063514210e-01  6.6654845396603801e-01  5.5232369359675215e-01  4.3849665594924520e-01  3.2644683072092601e-01  2.1635306226760342e-01  1.0777456519429437e-01  0.0000000000000000e+00  0.0000000000000000e+00  1.7144144575260789e-01  3.4741795097080125e-01  5.3324716262968841e-01  7.3622339174548057e-01  9.5816520370834923e-01  1.1430737801882283e+00  1.2669141969231072e+00  1.3295289911233332e+00  1.3364508888779691e+00  1.3057567501105498e+00  1.2912500315148159e+00  1.3023576968734389e+00  1.3345864784940331e+00  1.3875163392933669e+00  1.4557587522674804e+00  1.5219039600892319e+00  1.5465186297875446e+00  1.5241442529195428e+00  1.4379093558709592e+00  1.2926777137312473e+00  1.1550284133052930e+00  1.0329577270630661e+00  9.1954998021286694e-01  8.1162630065501218e-01  7.0708272384750603e-01  6.0352855545538231e-01  5.0022403100667445e-01  3.9774780840895257e-01  2.9658970076422198e-01  1.9680843401051581e-01  9.8111640110291623e-02  0.0000000000000000e+00  0.0000000000000000e+00  1.5500544778422617e-01  3.1299906325573523e-01  4.7693877366873594e-01  6.4937090182715229e-01  8