<?xml version="1.0"?>
<VTKFile type="UnstructuredGrid"  version="0.1"  >
<UnstructuredGrid>
<Piece  NumberOfPoints="1089" NumberOfCells="2048">
<Points>
<DataArray  type="Float64"  NumberOfComponents="3"  format="ascii">0 0 0  0.03125 0 0  0.0625 0 0  0.09375 0 0  0.125 0 0  0.15625 0 0  0.1875 0 0  0.21875 0 0  0.25 0 0  0.28125 0 0  0.3125 0 0  0.34375 0 0  0.375 0 0  0.40625 0 0  0.4375 0 0  0.46875 0 0  0.5 0 0  0.53125 0 0  0.5625 0 0  0.59375 0 0  0.625 0 0  0.65625 0 0  0.6875 0 0  0.71875 0 0  0.75 0 0  0.78125 0 0  0.8125 0 0  0.84375 0 0  0.875 0 0  0.90625 0 0  0.9375 0 0  0.96875 0 0  1 0 0  0 0.03125 0  0.03125 0.03125 0  0.0625 0.03125 0  0.09375 0.03125 0  0.125 0.03125 0  0.15625 0.03125 0  0.1875 0.03125 0  0.21875 0.03125 0  0.25 0.03125 0  0.28125 0.03125 0  0.3125 0.03125 0  0.34375 0.03125 0  0.375 0.03125 0  0.40625 0.03125 0  0.4375 0.03125 0  0.46875 0.03125 0  0.5 0.03125 0  0.53125 0.03125 0  0.5625 0.03125 0  0.59375 0.03125 0  0.625 0.03125 0  0.65625 0.03125 0  0.6875 0.03125 0  0.71875 0.03125 0  0.75 0.03125 0  0.78125 0.03125 0  0.8125 0.03125 0  0.84375 0.03125 0  0.875 0.03125 0  0.90625 0.03125 0  0.9375 0.03125 0  0.96875 0.03125 0  1 0.03125 0  0 0.0625 0  0.03125 0.0625 0  0.0625 0.0625 0  0.09375 0.0625 0  0.125 0.0625 0  0.15625 0.0625 0  0.1875 0.0625 0  0.21875 0.0625 0  0.25 0.0625 0  0.28125 0.0625 0  0.3125 0.0625 0  0.34375 0.0625 0  0.375 0.0625 0  0.40625 0.0625 0  0.4375 0.0625 0  0.46875 0.0625 0  0.5 0.0625 0  0.53125 0.0625 0  0.5625 0.0625 0  0.59375 0.0625 0  0.625 0.0625 0  0.65625 0.0625 0  0.6875 0.0625 0  0.71875 0.0625 0  0.75 0.0625 0  0.78125 0.0625 0  0.8125 0.0625 0  0.84375 0.0625 0  0.875 0.0625 0  0.90625 0.0625 0  0.9375 0.0625 0  0.96875 0.0625 0  1 0.0625 0  0 0.09375 0  0.03125 0.09375 0  0.0625 0.09375 0  0.09375 0.09375 0  0.125 0.09375 0  0.15625 0.09375 0  0.1875 0.09375 0  0.21875 0.09375 0  0.25 0.09375 0  0.28125 0.09375 0  0.3125 0.09375 0  0.34375 0.09375 0  0.375 0.09375 0  0.40625 0.09375 0  0.4375 0.09375 0  0.46875 0.09375 0  0.5 0.09375 0  0.53125 0.09375 0  0.5625 0.09375 0  0.59375 0.09375 0  0.625 0.09375 0  0.65625 0.09375 0  0.6875 0.09375 0  0.71875 0.09375 0  0.75 0.09375 0  0.78125 0.09375 0  0.8125 0.09375 0  0.84375 0.09375 0  0.875 0.09375 0  0.90625 0.09375 0  0.9375 0.09375 0  0.96875 0.09375 0  1 0.09375 0  0 0.125 0  0.03125 0.125 0  0.0625 0.125 0  0.09375 0.125 0  0.125 0.125 0  0.15625 0.125 0  0.1875 0.125 0  0.21875 0.125 0  0.25 0.125 0  0.28125 0.125 0  0.3125 0.125 0  0.34375 0.125 0  0.375 0.125 0  0.40625 0.125 0  0.4375 0.125 0  0.46875 0.125 0  0.5 0.125 0  0.53125 0.125 0  0.5625 0.125 0  0.59375 0.125 0  0.625 0.125 0  0.65625 0.125 0  0.6875 0.125 0  0.71875 0.125 0  0.75 0.125 0  0.78125 0.125 0  0.8125 0.125 0  0.84375 0.125 0  0.875 0.125 0  0.90625 0.125 0  0.9375 0.125 0  0.96875 0.125 0  1 0.125 0  0 0.15625 0  0.03125 0.15625 0  0.0625 0.15625 0  0.09375 0.15625 0  0.125 0.15625 0  0.15625 0.15625 0  0.1875 0.15625 0  0.21875 0.15625 0  0.25 0.15625 0  0.28125 0.15625 0  0.3125 0.15625 0  0.34375 0.15625 0  0.375 0.15625 0  0.40625 0.15625 0  0.4375 0.15625 0  0.46875 0.15625 0  0.5 0.15625 0  0.53125 0.15625 0  0.5625 0.15625 0  0.59375 0.15625 0  0.625 0.15625 0  0.65625 0.15625 0  0.6875 0.15625 0  0.71875 0.15625 0  0.75 0.15625 0  0.78125 0.15625 0  0.8125 0.15625 0  0.84375 0.15625 0  0.875 0.15625 0  0.90625 0.15625 0  0.9375 0.15625 0  0.96875 0.15625 0  1 0.15625 0  0 0.1875 0  0.03125 0.1875 0  0.0625 0.1875 0  0.09375 0.1875 0  0.125 0.1875 0  0.15625 0.1875 0  0.1875 0.1875 0  0.21875 0.1875 0  0.25 0.1875 0  0.28125 0.1875 0  0.3125 0.1875 0  0.34375 0.1875 0  0.375 0.1875 0  0.40625 0.1875 0  0.4375 0.1875 0  0.46875 0.1875 0  0.5 0.1875 0  0.53125 0.1875 0  0.5625 0.1875 0  0.59375 0.1875 0  0.625 0.1875 0  0.65625 0.1875 0  0.6875 0.1875 0  0.71875 0.1875 0  0.75 0.1875 0  0.78125 0.1875 0  0.8125 0.1875 0  0.84375 0.1875 0  0.875 0.1875 0  0.90625 0.1875 0  0.9375 0.1875 0  0.96875 0.1875 0  1 0.1875 0  0 0.21875 0  0.03125 0.21875 0  0.0625 0.21875 0  0.09375 0.21875 0  0.125 0.21875 0  0.15625 0.21875 0  0.1875 0.21875 0  0.21875 0.21875 0  0.25 0.21875 0  0.28125 0.21875 0  0.3125 0.21875 0  0.34375 0.21875 0  0.375 0.21875 0  0.40625 0.21875 0  0.4375 0.21875 0  0.46875 0.21875 0  0.5 0.21875 0  0.53125 0.21875 0  0.5625 0.21875 0  0.59375 0.21875 0  0.625 0.21875 0  0.65625 0.21875 0  0.6875 0.21875 0  0.71875 0.21875 0  0.75 0.21875 0  0.78125 0.21875 0  0.8125 0.21875 0  0.84375 0.21875 0  0.875 0.21875 0  0.90625 0.21875 0  0.9375 0.21875 0  0.96875 0.21875 0  1 0.21875 0  0 0.25 0  0.03125 0.25 0  0.0625 0.25 0  0.09375 0.25 0  0.125 0.25 0  0.15625 0.25 0  0.1875 0.25 0  0.21875 0.25 0  0.25 0.25 0  0.28125 0.25 0  0.3125 0.25 0  0.34375 0.25 0  0.375 0.25 0  0.40625 0.25 0  0.4375 0.25 0  0.46875 0.25 0  0.5 0.25 0  0.53125 0.25 0  0.5625 0.25 0  0.59375 0.25 0  0.625 0.25 0  0.65625 0.25 0  0.6875 0.25 0  0.71875 0.25 0  0.75 0.25 0  0.78125 0.25 0  0.8125 0.25 0  0.84375 0.25 0  0.875 0.25 0  0.90625 0.25 0  0.9375 0.25 0  0.96875 0.25 0  1 0.25 0  0 0.28125 0  0.03125 0.28125 0  0.0625 0.28125 0  0.09375 0.28125 0  0.125 0.28125 0  0.15625 0.28125 0  0.1875 0.28125 0  0.21875 0.28125 0  0.25 0.28125 0  0.28125 0.28125 0  0.3125 0.28125 0  0.34375 0.28125 0  0.375 0.28125 0  0.40625 0.28125 0  0.4375 0.28125 0  0.46875 0.28125 0  0.5 0.28125 0  0.53125 0.28125 0  0.5625 0.28125 0  0.59375 0.28125 0  0.625 0.28125 0  0.65625 0.28125 0  0.6875 0.28125 0  0.71875 0.28125 0  0.75 0.28125 0  0.78125 0.28125 0  0.8125 0.28125 0  0.84375 0.28125 0  0.875 0.28125 0  0.90625 0.28125 0  0.9375 0.28125 0  0.96875 0.28125 0  1 0.28125 0  0 0.3125 0  0.03125 0.3125 0  0.0625 0.3125 0  0.09375 0.3125 0  0.125 0.3125 0  0.15625 0.3125 0  0.1875 0.3125 0  0.21875 0.3125 0  0.25 0.3125 0  0.28125 0.3125 0  0.3125 0.3125 0  0.34375 0.3125 0  0.375 0.3125 0  0.40625 0.3125 0  0.4375 0.3125 0  0.46875 0.3125 0  0.5 0.3125 0  0.53125 0.3125 0  0.5625 0.3125 0  0.59375 0.3125 0  0.625 0.3125 0  0.65625 0.3125 0  0.6875 0.3125 0  0.71875 0.3125 0  0.75 0.3125 0  0.78125 0.3125 0  0.8125 0.3125 0  0.84375 0.3125 0  0.875 0.3125 0  0.90625 0.3125 0  0.9375 0.3125 0  0.96875 0.3125 0  1 0.3125 0  0 0.34375 0  0.03125 0.34375 0  0.0625 0.34375 0  0.09375 0.34375 0  0.125 0.34375 0  0.15625 0.34375 0  0.1875 0.34375 0  0.21875 0.34375 0  0.25 0.34375 0  0.28125 0.34375 0  0.3125 0.34375 0  0.34375 0.34375 0  0.375 0.34375 0  0.40625 0.34375 0  0.4375 0.34375 0  0.46875 0.34375 0  0.5 0.34375 0  0.53125 0.34375 0  0.5625 0.34375 0  0.59375 0.34375 0  0.625 0.34375 0  0.65625 0.34375 0  0.6875 0.34375 0  0.71875 0.34375 0  0.75 0.34375 0  0.78125 0.34375 0  0.8125 0.34375 0  0.84375 0.34375 0  0.875 0.34375 0  0.90625 0.34375 0  0.9375 0.34375 0  0.96875 0.34375 0  1 0.34375 0  0 0.375 0  0.03125 0.375 0  0.0625 0.375 0  0.09375 0.375 0  0.125 0.375 0  0.15625 0.375 0  0.1875 0.375 0  0.21875 0.375 0  0.25 0.375 0  0.28125 0.375 0  0.3125 0.375 0  0.34375 0.375 0  0.375 0.375 0  0.40625 0.375 0  0.4375 0.375 0  0.46875 0.375 0  0.5 0.375 0  0.53125 0.375 0  0.5625 0.375 0  0.59375 0.375 0  0.625 0.375 0  0.65625 0.375 0  0.6875 0.375 0  0.71875 0.375 0  0.75 0.375 0  0.78125 0.375 0  0.8125 0.375 0  0.84375 0.375 0  0.875 0.375 0  0.90625 0.375 0  0.9375 0.375 0  0.96875 0.375 0  1 0.375 0  0 0.40625 0  0.03125 0.40625 0  0.0625 0.40625 0  0.09375 0.40625 0  0.125 0.40625 0  0.15625 0.40625 0  0.1875 0.40625 0  0.21875 0.40625 0  0.25 0.40625 0  0.28125 0.40625 0  0.3125 0.40625 0  0.34375 0.40625 0  0.375 0.40625 0  0.40625 0.40625 0  0.4375 0.40625 0  0.46875 0.40625 0  0.5 0.40625 0  0.53125 0.40625 0  0.5625 0.40625 0  0.59375 0.40625 0  0.625 0.40625 0  0.65625 0.40625 0  0.6875 0.40625 0  0.71875 0.40625 0  0.75 0.40625 0  0.78125 0.40625 0  0.8125 0.40625 0  0.84375 0.40625 0  0.875 0.40625 0  0.90625 0.40625 0  0.9375 0.40625 0  0.96875 0.40625 0  1 0.40625 0  0 0.4375 0  0.03125 0.4375 0  0.0625 0.4375 0  0.09375 0.4375 0  0.125 0.4375 0  0.15625 0.4375 0  0.1875 0.4375 0  0.21875 0.4375 0  0.25 0.4375 0  0.28125 0.4375 0  0.3125 0.4375 0  0.34375 0.4375 0  0.375 0.4375 0  0.40625 0.4375 0  0.4375 0.4375 0  0.46875 0.4375 0  0.5 0.4375 0  0.53125 0.4375 0  0.5625 0.4375 0  0.59375 0.4375 0  0.625 0.4375 0  0.65625 0.4375 0  0.6875 0.4375 0  0.71875 0.4375 0  0.75 0.4375 0  0.78125 0.4375 0  0.8125 0.4375 0  0.84375 0.4375 0  0.875 0.4375 0  0.90625 0.4375 0  0.9375 0.4375 0  0.96875 0.4375 0  1 0.4375 0  0 0.46875 0  0.03125 0.46875 0  0.0625 0.46875 0  0.09375 0.46875 0  0.125 0.46875 0  0.15625 0.46875 0  0.1875 0.46875 0  0.21875 0.46875 0  0.25 0.46875 0  0.28125 0.46875 0  0.3125 0.46875 0  0.34375 0.46875 0  0.375 0.46875 0  0.40625 0.46875 0  0.4375 0.46875 0  0.46875 0.46875 0  0.5 0.46875 0  0.53125 0.46875 0  0.5625 0.46875 0  0.59375 0.46875 0  0.625 0.46875 0  0.65625 0.46875 0  0.6875 0.46875 0  0.71875 0.46875 0  0.75 0.46875 0  0.78125 0.46875 0  0.8125 0.46875 0  0.84375 0.46875 0  0.875 0.46875 0  0.90625 0.46875 0  0.9375 0.46875 0  0.96875 0.46875 0  1 0.46875 0  0 0.5 0  0.03125 0.5 0  0.0625 0.5 0  0.09375 0.5 0  0.125 0.5 0  0.15625 0.5 0  0.1875 0.5 0  0.21875 0.5 0  0.25 0.5 0  0.28125 0.5 0  0.3125 0.5 0  0.34375 0.5 0  0.375 0.5 0  0.40625 0.5 0  0.4375 0.5 0  0.46875 0.5 0  0.5 0.5 0  0.53125 0.5 0  0.5625 0.5 0  0.59375 0.5 0  0.625 0.5 0  0.65625 0.5 0  0.6875 0.5 0  0.71875 0.5 0  0.75 0.5 0  0.78125 0.5 0  0.8125 0.5 0  0.84375 0.5 0  0.875 0.5 0  0.90625 0.5 0  0.9375 0.5 0  0.96875 0.5 0  1 0.5 0  0 0.53125 0  0.03125 0.53125 0  0.0625 0.53125 0  0.09375 0.53125 0  0.125 0.53125 0  0.15625 0.53125 0  0.1875 0.53125 0  0.21875 0.53125 0  0.25 0.53125 0  0.28125 0.53125 0  0.3125 0.53125 0  0.34375 0.53125 0  0.375 0.53125 0  0.40625 0.53125 0  0.4375 0.53125 0  0.46875 0.53125 0  0.5 0.53125 0  0.53125 0.53125 0  0.5625 0.53125 0  0.59375 0.53125 0  0.625 0.53125 0  0.65625 0.53125 0  0.6875 0.53125 0  0.71875 0.53125 0  0.75 0.53125 0  0.78125 0.531
[...]
<PointData  Scalars="u"> 
<DataArray  type="Float64"  Name="u"  format="ascii">0.0000000000000000e+00  0.0000000000000000e+00  0.0000000000000000e+00  0.0000000000000000e+00  0.0000000000000000e+00  0.0000000000000000e+00  0.0000000000000000e+00  0.0000000000000000e+00  0.0000000000000000e+00  0.0000000000000000e+00  0.0000000000000000e+00  0.0000000000000000e+00  0.0000000000000000e+00  0.0000000000000000e+00  0.0000000000000000e+00  0.0000000000000000e+00  0.0000000000000000e+00  0.0000000000000000e+00  0.0000000000000000e+00  0.0000000000000000e+00  0.0000000000000000e+00  0.0000000000000000e+00  0.0000000000000000e+00  0.0000000000000000e+00  0.0000000000000000e+00  0.0000000000000000e+00  0.0000000000000000e+00  0.0000000000000000e+00  0.0000000000000000e+00  0.0000000000000000e+00  0.0000000000000000e+00  0.0000000000000000e+00  0.0000000000000000e+00  0.0000000000000000e+00  1.3266138013936436e-02  2.6453556141265978e-02  3.9462347152093846e-02  5.2142107120311497e-02  6.4277379037149737e-02  7.5589459764160663e-02  8.5763391154459939e-02  9.4502398021585679e-02  1.0160131482103955e-01  1.0702566162158901e-01  1.1095775909017763e-01  1.1374822890878235e-01  1.1579872207060025e-01  1.1746550520350726e-01  1.1901041228379837e-01  1.2058242049381004e-01  1.2220647679920957e-01  1.2376582765710575e-01  1.2497852615966056e-01  1.2538522619064549e-01  1.2437922951853257e-01  1.2130709060262855e-01  1.1564063214369225e-01  1.0720811818914593e-01  9.6351860581475060e-02  8.3770599123652978e-02  7.0187318956572139e-02  5.6154141244925369e-02  4.2010958635809642e-02  2.7921206832709416e-02  1.3927147553841035e-02  0.0000000000000000e+00  0.0000000000000000e+00  2.6559229018610575e-02  5.2989951150221849e-02  7.9114662790812237e-02  1.0464774229558077e-01  1.2915735444651918e-01  1.5206020462689035e-01  1.7267311533951529e-01  1.9033012035454999e-01  2.0454235904839982e-01  2.1519455835217238e-01  2.2269883556687053e-01  2.2787211922338588e-01  2.3161241612550151e-01  2.3467982819210528e-01  2.3761539206785426e-01  2.4072769879563366e-01  2.4408436044502110e-01  2.4747606903379288e-01  2.5035256589898508e-01  2.5176724373465892e-01  2.5040872055792712e-01  2.4480071954516797e-01  2.3365761697868670e-01  2.1647867330423662e-01  1.9410461299946660e-01  1.6826247539832723e-01  1.4059071568242126e-01  1.1223293992780241e-01  8.3831924526121995e-02  5.5658672217259286e-02  2.7747452393740709e-02  0.0000000000000000e+00  0.0000000000000000e+00  3.9884442531054012e-02  7.9647534288274507e-02  1.1908656676889537e-01  1.5781997248739235e-01  1.9520653730664414e-01  2.3030909172249422e-01  2.6196170586254897e-01  2.8897166177430578e-01  3.1037137212728505e-01  3.2581079313262473e-01  3.3605227445655522e-01  3.4269930104838769e-01  3.4736151114952807e-01  3.5128084872211712e-01  3.5528868608869169e-01  3.5986054957350511e-01  3.6514257738534889e-01  3.7089815043136987e-01  3.7636680784346693e-01  3.8008740507374505e-01  3.7984955844825680e-01  3.7300454295239072e-01  3.5691979508858401e-01  3.3021023151503509e-01  2.9466668331852286e-01  2.5401326466478297e-01  2.1120434484824122e-01  1.6797679612477484e-01  1.2514475959304411e-01  8.2950680033564650e-02  4.1316490792208851e-02  0.0000000000000000e+00  0.0000000000000000e+00  5.3189732156294571e-02  1.0635454523756104e-01  1.5935738597890967e-01  2.1180312457983810e-01  2.6288010376019422e-01  3.1123378128274493e-01  3.5501786778955102e-01  3.9226521158901989e-01  4.2114013466022265e-01  4.4056318096178043e-01  4.5191438980909548e-01  4.5841242331741000e-01  4.6274604880846715e-01  4.6667685793136976e-01  4.7126834019822650e-01  4.7713455836371971e-01  4.8455318577135720e-01  4.9340285621011321e-01  5.0289356589824408e-01  5.1110481982425260e-01  5.1462551954708968e-01  5.0919054040374345e-01  4.8959874019428579e-01  4.5165555789395723e-01  3.9933730081430385e-01  3.4105583000391149e-01  2.8151904558626656e-01  2.2275592629685370e-01  1.6539765652053492e-01  1.0940578449088040e-01  5.4433697049565043e-02  0.0000000000000000e+00  0.0000000000000000e+00  6.6333718368247543e-02  1.3285857643118201e-01  1.9964229938258457e-01  2.6643638493546240e-01  3.3238850505125961e-01  3.9568101168491654e-01  4.5342319888980598e-01  5.0262819270872816e-01  5.3997366148046422e-01  5.6194923155002108e-01  5.7116676894428453e-01  5.7481707612246136e-01  5.7705530739054245e-01  5.7992651464018607e-01  5.8447303577729215e-01  5.9133180400346375e-01  6.0097380433472192e-01  6.1366373755122017e-01  6.2904823662489795e-01  6.4511655190384543e-01  6.5663392178968172e-01  6.5781775929396624e-01  6.3897543877727592e-01  5.8594807573041952e-01  5.0861658918082731e-01  4.2819470691522787e-01  3.5010321042419534e-01  2.7537428356796079e-01  2.0372490709421459e-01  1.3447380553865976e-01  6.6833438878473900e-02  0.0000000000000000e+00  0.0000000000000000e+00  7.9055937725332370e-02  1.5864899381941061e-01  2.3923711623556052e-01  3.2100735523263113e-01  4.0343203642897624e-01  4.8434566894829467e-01  5.5884650355711862e-01  6.2317789311170757e-01  6.7239604205402592e-01  6.9425674998464781e-01  6.9413399395137831e-01  6.9078269117814872e-01  6.8888414629730210e-01  6.8965096295627459e-01  6.9350203225245854e-01  7.0085469087967656e-01  7.1241190610218541e-01  7.2923616105671130e-01  7.5245320229378276e-01  7.8153966076544823e-01  8.0678205745509601e-01  8.1501452763341631e-01  8.0189521319885271e-01  7.3332776560270907e-01  6.1926862534697802e-01  5.1155165195537000e-01  4.1413645850598202e-01  3.2397923058034622e-01  2.3896495657087025e-01  1.5747888478124702e-01  7.8204929842613805e-02  0.0000000000000000e+00  0.0000000000000000e+00  9.0967622556844777e-02  1.8290238831172101e-01  2.7683581800092733e-01  3.7383421223112195e-01  4.7462064087881595e-01  5.7779056913887505e-01  6.7256781209022509e-01  7.4751932831427625e-01  8.1146297330104711e-01  8.3703230305847764e-01  8.1807581356995418e-01  8.0306575988078199e-01  7.9583651139924405e-01  7.9408622924894445e-01  7.9681453117343493e-01  8.0392931850602267e-01  8.1628905043685029e-01  8.3604734567681116e-01  8.6752106885955627e-01  9.0997435951904082e-01  9.5276428464447604e-01  9.6310662723757501e-01  9.3436537115325025e-01  8.4977363272521989e-01  7.1225098643406803e-01  5.8287845951312667e-01  4.6950944789156313e-01  3.6634477431484186e-01  2.6987002069364302e-01  1.7774261768542457e-01  8.8247680542536025e-02  0.0000000000000000e+00  0.0000000000000000e+00  1.0159909056991219e-01  2.0453374753057640e-01  3.1042891820893403e-01  4.2160492267929045e-01  5.4182017868750865e-01  6.6843652530451791e-01  7.8537565467439563e-01  8.6189803207693949e-01  9.1225398573619843e-01  9.4762118913853211e-01  9.2616403375356260e-01  9.0496910036002509e-01  8.9474814033339090e-01  8.9149746032345922e-01  8.9319061533366839e-01  8.9918254721655100e-01  9.1013956294952214e-01  9.2843232034537237e-01  9.5952627938533197e-01  1.0073399255226723e+00  1.0448254172923264e+00  1.0546254323874502e+00  1.0178721363588275e+00  9.2385214691533435e-01  7.7620062492280717e-01  6.3623722047300890e-01  5.1309291044061878e-01  4.0078443342003495e-01  2.9551939646236719e-01  1.9477801395690275e-01  9.6750060438338351e-02  0.0000000000000000e+00  0.0000000000000000e+00  1.1054706839988335e-01  2.2250955133124126e-01  3.3768911286445746e-01  4.5891036305530747e-01  5.9154394517602660e-01  7.3878059895164661e-01  8.6201417837403871e-01  9.3486195814352446e-01  9.8804083022350919e-01  1.0287053759537714e+00  1.0124720621509533e+00  9.9295912248238938e-01  9.8379952386811664e-01  9.8109838467008703e-01  9.8240260052343431e-01  9.8658483212742054e-01  9.9372411526212112e-01  1.0050119206665300e+00  1.0224430604861430e+00  1.0470100741938466e+00  1.0686697958432327e+00  1.0782554234053017e+00  1.0443143569804456e+00  9.5602346292303453e-01  8.1137040786777015e-01  6.7063853285984854e-01  5.4411474484208611e-01  4.2683430770682773e-01  3.1565485724540115e-01  2.0844963447927078e-01  1.0365384037912512e-01  0.0000000000000000e+00  0.0000000000000000e+00  1.1770284536986565e-01  2.3651449790525006e-01  3.5776661010298649e-01  4.8325726478701891e-01  6.1543327150572036e-01  7.5668444596529449e-01  8.9370450826746939e-01  9.8740934725649065e-01  1.0453366123557908e+00  1.0893325721644280e+00  1.0802488769133662e+00  1.0673583388753547e+00  1.0632027307704506e+00  1.0635278060451907e+00  1.0655750320073287e+00  1.0678565256766366e+00  1.0699577229442874e+00  1.0721975654359639e+00  1.0749025351875923e+00  1.0769247600928102e+00  1.0733442454256275e+00  1.0586390515070569e+00  1.0199371035513642e+00  9.4891526434426654e-01  8.2141712273993872e-01  6.8858697134951530e-01  5.6407228134854059e-01  4.4535731477701301e-01  3.3076441231138870e-01  2.1901960924777569e-01  1.0907339800234794e-01  0.0000000000000000e+00  0.0000000000000000e+00  1.2335009131817162e-01  2.4727961208512003e-01  3.7239904012042768e-01  4.9929301400899223e-01  6.2818503932238801e-01  7.5780217242433467e-01  8.8251265962214875e-01  9.8922857291048194e-01  1.0761177599450542e+00  1.1254770345531329e+00  1.1297884718303153e+00  1.1295289288791366e+00  1.1346630336084753e+00  1.1407874262226030e+00  1.1450694827976724e+00  1.1458616730512086e+00  1.1425967868392586e+00  1.1354469749401948e+00  1.1245530092783613e+00  1.1089303014404663e+00  1.0856290218271907e+00  1.0502939826126334e+00  9.9677413401976145e-01  9.2116359467863917e-01  8.1556937951951003e-01  6.9592690372563526e-01  5.7635394995135958e-01  4.5828034327785627e-01  3.4193125989900969e-01  2.2706837658330720e-01  1.1326187068178498e-01  0.0000000000000000e+00  0.0000000000000000e+00  1.2799975906379815e-01  2.5601979903814726e-01  3.8400163797099601e-01  5.1165066241597690e-01  6.3810311369568218e-01  7.6129141092971220e-01  8.7712477771361586e-01  9.7983914564444152e-01  1.0668801223160405e+00  1.1289727852058211e+00  1.1616757227259518e+00  1.1825909269821524e+00  1.2014184691453482e+00  1.2161703903471583e+00  1.2243326545029891e+00  1.2242070852324056e+00  1.2154161960907048e+00  1.1987557907496087e+00  1.1752754650828681e+00  1.1449984958918697e+00  1.1063965890203278e+00  1.0566882242200717e+00  9.9242284641465794e-01  9.1111021356786892e-01  8.1182250701558611e-01  7.0089387568061190e-01  5.8523249285073442e-01  4.6796896934547433e-01  3.5048846511435400e-01  2.3331678157535823e-01  1.1653592465319146e-01  0.0000000000000000e+00  0.0000000000000000e+00  1.3219495225215336e-01  2.6393270411859548e-01  3.9464093680831125e-01  5.2348030484607688e-01  6.4913812356257250e-01  7.6957914200876254e-01  8.8191725910615126e-01  9.8284793733926412e-01  1.0697877474231754e+00  1.1396085014775590e+00  1.1922455038642508e+00  1.2338276386105846e+00  1.2682907971566957e+00  1.2941507671708223e+00  1.3078772846080724e+00  1.3072213064269647e+00  1.2921429434008100e+00  1.2649782544099406e+00  1.2289628669786661e+00  1.1856540941630846e+00  1.1346531116259415e+00  1.0741784693121506e+00  1.0018630863186671e+00  9.1603919246707677e-01  8.1704671338350310e-01  7.0828966010959327e-01  5.9379352799103302e-01  4.7634349629417927e-01  3.5759316660245599e-01  2.3841494972110180e-01  1.1918685963658675e-01  0.0000000000000000e+00  0.0000000000000000e+00  1.3639730488623436e-01  2.7197966589509498e-01  4.0581224837810015e-01  5.3672049350375894e-01  6.6319692199886682e-01  7.8337415737030680e-01  8.9514819032716764e-01  9.9654550610704629e-01  1.0862283464797753e+00  1.1636150370360510e+00  1.2298880930511855e+00  1.2880735105649024e+00  1.3395554259030751e+00  1.3799820110733894e+00  1.4014899228963378e+00  1.4003576575160330e+00  1.3767148600273484e+00  1.3359055032928910e+00  1.2859190759385435e+00  1.2301203153185090e+00  1.1686684234503841e+00  1.0999918807313054e+00  1.0215307910524223e+00  9.3113728022909104e-01  8.2936148133876708e-01  7.1910951690206215e-01  6.0337186505359619e-01  4.8446870247047247e-01  3.6396541587341996e-01  2.4279120460680223e-01  1.2141174381068007e-01  0.0000000000000000e+00  0.0000000000000000e+00  1.4094708653348331e-01  2.8084762172434374e-01  4.1852446241274982e-01  5.5256538499976426e-01  6.8130059883237559e-01  8.0291395778475194e-01  9.1572360470024927e-01  1.0185882810868017e+00  1.1112996946728211e+00  1.1948155962354432e+00  1.2714823717777193e+00  1.3446991475728189e+00  1.4173895273228074e+00  1.4801254210034289e+00  1.5130797885165359e+00  1.5113606316393833e+00  1.4739008674225216e+00  1.4116009533328682e+00  1.3444507833066592e+00  1.2761927849713910e+00  1.2060687978836349e+00  1.1319806125588248e+00  1.0497842547262095e+00  9.5457217687537621e-01  8.4744447800377087e-01  7.3307200810882134e-01  6.1415465769743394e-01  4.9262363047498181e-01  3.6983184360148319e-01  2.4658956194103912e-01  1.2327824195508029e-01  0.0000000000000000e+00  0.0000000000000000e+00  1.4605551642855100e-01  2.9097112835635264e-01  4.3343269475565233e-01  5.7181809885190937e-01  7.0419016337326479e-01  8.2850978110822704e-01  9.4311661921760925e-01  1.0473128141289991e+00  1.1417865310248259e+00  1.2288083633487425e+00  1.3122162339801351e+00  1.3972994144800881e+00  1.4911427790802434e+00  1.5865756700119589e+00  1.6357768975134297e+00  1.6345615373108371e+00  1.5817724449107828e+00  1.4874536903526834e+00  1.3996282817727268e+00  1.3199053632795930e+00  1.2434492102207106e+00  1.1683477221931189e+00  1.0876058447131545e+00  9.8679772294091173e-01  8.7000502273106695e-01  7.4919205272776856e-01  6.2555684965410274e-01  5.0044434130307358e-01  3.7495461083023757e-01  2.4966262835203240e-01  1.2471548221776604e-01  0.0000000000000000e+00  0.0000000000000000e+00  1.5179197282041065e-01  3.0253362523394423e-01  4.5090846536109047e-01  5.9509780362646136e-01  7.3269120677809130e-01  8.6095320633356753e-01  9.7766682060427090e-01  1.0821558071831172e+00  1.1758051534418281e+00  1.2622048691342653e+00  1.3467872624978907e+00  1.4363707773679781e+00  1.5397393038197362e+00  1.6506634809611160e+00  1.7109069173229876e+00  1.7113744435757492e+00  1.6518954135302995e+00  1.5425831724876828e+00  1.4420203995229606e+00  1.3559473924495338e+00  1.2753411494912674e+00  1.1972376426610867e+00  1.1234138741255100e+00  1.0225230211005092e+00  8.9373941788994926e-01  7.6569043477847221e-01  6.3640233972870985e-01  5.0702023460589984e-01  3.7866783443226942e-01  2.5158594856264943e-01  1.2551985650696754e-01  0.0000000000000000e+00  0.0000000000000000e+00  1.5803935153220036e-01  3.1539318209499412e-01  4.7097933054020930e-01  6.2287934964060443e-01  7.6795212203133434e-01  9.0193216728605452e-01  1.0210308636206882e+00  1.1240745340434504e+00  1.2129952066896410e+00  1.2930517995664923e+00  1.3717088589754363e+00  1.4567133725936143e+00  1.5570086496523374e+00  1.6673377570323524e+00  1.7290423165394508e+00  1.7313769748840522e+00  1.6737973940286084e+00  1.5652524904642835e+00  1.4650535677740522e+00  1.3819611007542163e+00  1.3004628613510356e+00  1.2086170090282173e+00  1.1178408639747623e+00  1.0180405393971856e+00  9.0455609485807342e-01  7.8092230482941649e-01  6.4526657958406097e-01  5.1091853361522876e-01  3.7988347296379416e-01  2.5168018891935401e-01  1.2537298381153103e-01  0.0000000000000000e+00  0.0000000000000000e+00  1.6440274615998740e-01  3.2888957989451029e-01  4.9305218426864716e-01  6.5526685542780827e-01  8.1157602277586316e-01  9.5459838137722808e-01  1.0768476652569496e+00  1.1761647831361914e+00  1.2547991095998769e+00  1.3207803562824401e+00  1.3855039139656391e+00  1.4567074991074556e+00  1.5403701772723288e+00  1.6344407509008620e+00  1.6896672462424880e+00  1.6944167881522074e+00  1.6484824828676008e+00  1.5557367907404989e+00  1.4659871555052884e+00  1.3924442530190337e+00  1.3223036067455292e+00  1.2148781342592923e+00  1.1083202959586274e+00  1.0053668328869474e+00  9.0403322977093947e-01  7.9636283765978289e-01  6.5071179472141039e-01  5.0983713061163960e-01  3.7703158632835593e-01  2.4906151278819882e-01  1.2388549102456110e-01  0.0000000000000000e+00  0.0000000000000000e+00  1.7008206936578643e-01  3.4151563244747651e-01  5.1528721918974107e-01  6.9119402515297856e-01  8.6556889180512564e-01  1.0246225576113102e+00  1.1517614933329392e+00  1.2447660552767696e+00  1.3048201866180638e+00  1.3451088883262770e+00  1.3879462795780326e+00  1.4391379729921492e+00  1.4987065088375089e+00  1.5607450252828257e+00  1.6024587078091523e+00  1.6098227454258240e+00  1.5810694236330050e+00  1.5193660863385889e+00  1.4456752306007468e+00  1.3762720231964582e+00  1.3122145169973118e+00  1.2069279848203978e+00  1.0914748057361363e+00  9.8771436360891907e-01  8.8834974231741393e-01  7.8242780749931196e-01  6.3999715154888304e-01  4.9901650301845346e-01  3.6811215919997359e-01  2.4283656988665550e-01  1.2070361767640726e-01  0.0000000000000000e+00  0.0000000000000000e+00  1.7378292924458355e-01  3.5054993617346142e-01  5.3350110488234281e-01  7.2613448549351500e-01  9.2250046860716184e-01  1.1043811413160174e+00  1.2381930486428712e+00  1.3233852286843977e+00  1.3607194693514924e+00  1.3621081095845087e+00  1.3771088281281885e+00  1.4080989166513711e+00  1.4492902959543361e+00  1.4926495206378303e+00  1.5254950016165938e+00  1.5372252558268940e+00  1.5225950080263353e+00  1.4804450961238200e+00  1.4160668544380448e+00  1.3407719032074807e+00  1.2648946824873188e+00  1.1773039119901729e+00  1.0592482838406403e+00  9.5309987000791030e-01  8.5777043976929646e-01  7.3768161332388149e-01  6.0722379922588265e-01  4.7647564606566095e-01  3.5235476650558539e-01  2.3267295308803523e-01  1.1569650038038524e-01  0.0000000000000000e+00  0.0000000000000000e+00  1.7385485381479895e-01  3.5210352504820785e-01  5.4006693587568344e-01  7.4543631493156115e-01  9.6283194125588412e-01  1.1450140289833697e+00  1.2763432895734064e+00  1.3526684501997461e+00  1.3737328699307876e+00  1.3513766998401147e+00  1.3453540913842899e+00  1.3618287773521918e+00  1.3925445568795798e+00  1.4297688035420484e+00  1.4642452647205322e+00  1.4855587294830201e+00  1.4862784645596507e+00  1.4585609146085057e+00  1.3924368293247054e+00  1.3012087078379340e+00  1.2064439998466032e+00  1.1093867584226260e+00  1.0022655727947070e+00  8.9520165758161063e-01  7.9359418020663863e-01  6.8235447165741625e-01  5.6347394271681295e-01  4.4572819446150735e-01  3.3099487609127659e-01  2.1903743643020834e-01  1.0902764290428203e-01  0.0000000000000000e+00  0.0000000000000000e+00  1.6888566873931055e-01  3.4263412521296865e-01  5.2722992670481061e-01  7.3148534456151770e-01  9.5166560438224546e-01  1.1306665594660659e+00  1.2539589872595360e+00  1.3214048406808312e+00  1.3327700710913342e+00  1.3009489307144815e+00  1.2862481750810550e+00  1.2964108254173163e+00  1.3242860118196003e+00  1.3645131167965481e+00  1.4109296197285495e+00  1.4492015658040081e+00  1.4638878566802038e+00  1.4514533488435291e+00  1.3797896156858422e+00  1.2606476082473383e+00  1.1461049501672134e+00  1.0384644637570515e+00  9.3254314746560862e-01  8.2880316701956880e-01  7.2712623803590404e-01  6.2312981797557754e-01  5.1670553720784618e-01  4.1048437125248460e-01  3.0576171008438918e-01  2.0272961477194865e-01  1.0101490117499549e-01  0.0000000000000000e+00  0.0000000000000000e+00  1.5842417098498143e-01  3.2104045410305115e-01  4.9277896154690959e-01  6.8042964704222864e-01  8.8575579069025911e-01  1.0569871311581132e+00  1.1719465809361771e+00  1.2305033137619654e+00  1.2377133935726397e+00  1.2101844815391045e+00  1.1976018513049855e+00  1.2085734444025182e+00  1.2388809407702985e+00  1.2881457683578679e+00  1.3514454245384822e+00  1.4127648636977395e+00  1.4356875221378864e+00  1.4152397561686185e+00  1.3358081541222560e+00  1.2018297259011681e+00  1.0748664803237682e+00  9.6222021366876720e-01  8.5742381768860132e-01  7.5750495984970967e-01  6.6050884384389330e-01  5.6423014888684930e-01  4.6799958028397654e-01  3.7237134464974547e-01  2.7782115191293505e-01  1.8443145423838947e-01  9.1965624107688188e-02  0.0000000000000000e+00  0.0000000000000000e+00  1.4317996008916289e-01  2.8912480506109817e-01  4.4058323757506740e-01  5.9994518913497585e-01  7