<?xml version="1.0"?>
<VTKFile type="UnstructuredGrid"  version="0.1"  >
<UnstructuredGrid>
<Piece  NumberOfPoints="1089" NumberOfCells="2048">
<Points>
<DataArray  type="Float64"  NumberOfComponents="3"  format="ascii">0 0 0  0.03125 0 0  0.0625 0 0  0.09375 0 0  0.125 0 0  0.15625 0 0  0.1875 0 0  0.21875 0 0  0.25 0 0  0.28125 0 0  0.3125 0 0  0.34375 0 0  0.375 0 0  0.40625 0 0  0.4375 0 0  0.46875 0 0  0.5 0 0  0.53125 0 0  0.5625 0 0  0.59375 0 0  0.625 0 0  0.65625 0 0  0.6875 0 0  0.71875 0 0  0.75 0 0  0.78125 0 0  0.8125 0 0  0.84375 0 0  0.875 0 0  0.90625 0 0  0.9375 0 0  0.96875 0 0  1 0 0  0 0.03125 0  0.03125 0.03125 0  0.0625 0.03125 0  0.09375 0.03125 0  0.125 0.03125 0  0.15625 0.03125 0  0.1875 0.03125 0  0.21875 0.03125 0  0.25 0.03125 0  0.28125 0.03125 0  0.3125 0.03125 0  0.34375 0.03125 0  0.375 0.03125 0  0.40625 0.03125 0  0.4375 0.03125 0  0.46875 0.03125 0  0.5 0.03125 0  0.53125 0.03125 0  0.5625 0.03125 0  0.59375 0.03125 0  0.625 0.03125 0  0.65625 0.03125 0  0.6875 0.03125 0  0.71875 0.03125 0  0.75 0.03125 0  0.78125 0.03125 0  0.8125 0.03125 0  0.84375 0.03125 0  0.875 0.03125 0  0.90625 0.03125 0  0.9375 0.03125 0  0.96875 0.03125 0  1 0.03125 0  0 0.0625 0  0.03125 0.0625 0  0.0625 0.0625 0  0.09375 0.0625 0  0.125 0.0625 0  0.15625 0.0625 0  0.1875 0.0625 0  0.21875 0.0625 0  0.25 0.0625 0  0.28125 0.0625 0  0.3125 0.0625 0  0.34375 0.0625 0  0.375 0.0625 0  0.40625 0.0625 0  0.4375 0.0625 0  0.46875 0.0625 0  0.5 0.0625 0  0.53125 0.0625 0  0.5625 0.0625 0  0.59375 0.0625 0  0.625 0.0625 0  0.65625 0.0625 0  0.6875 0.0625 0  0.71875 0.0625 0  0.75 0.0625 0  0.78125 0.0625 0  0.8125 0.0625 0  0.84375 0.0625 0  0.875 0.0625 0  0.90625 0.0625 0  0.9375 0.0625 0  0.96875 0.0625 0  1 0.0625 0  0 0.09375 0  0.03125 0.09375 0  0.0625 0.09375 0  0.09375 0.09375 0  0.125 0.09375 0  0.15625 0.09375 0  0.1875 0.09375 0  0.21875 0.09375 0  0.25 0.09375 0  0.28125 0.09375 0  0.3125 0.09375 0  0.34375 0.09375 0  0.375 0.09375 0  0.40625 0.09375 0  0.4375 0.09375 0  0.46875 0.09375 0  0.5 0.09375 0  0.53125 0.09375 0  0.5625 0.09375 0  0.59375 0.09375 0  0.625 0.09375 0  0.65625 0.09375 0  0.6875 0.09375 0  0.71875 0.09375 0  0.75 0.09375 0  0.78125 0.09375 0  0.8125 0.09375 0  0.84375 0.09375 0  0.875 0.09375 0  0.90625 0.09375 0  0.9375 0.09375 0  0.96875 0.09375 0  1 0.09375 0  0 0.125 0  0.03125 0.125 0  0.0625 0.125 0  0.09375 0.125 0  0.125 0.125 0  0.15625 0.125 0  0.1875 0.125 0  0.21875 0.125 0  0.25 0.125 0  0.28125 0.125 0  0.3125 0.125 0  0.34375 0.125 0  0.375 0.125 0  0.40625 0.125 0  0.4375 0.125 0  0.46875 0.125 0  0.5 0.125 0  0.53125 0.125 0  0.5625 0.125 0  0.59375 0.125 0  0.625 0.125 0  0.65625 0.125 0  0.6875 0.125 0  0.71875 0.125 0  0.75 0.125 0  0.78125 0.125 0  0.8125 0.125 0  0.84375 0.125 0  0.875 0.125 0  0.90625 0.125 0  0.9375 0.125 0  0.96875 0.125 0  1 0.125 0  0 0.15625 0  0.03125 0.15625 0  0.0625 0.15625 0  0.09375 0.15625 0  0.125 0.15625 0  0.15625 0.15625 0  0.1875 0.15625 0  0.21875 0.15625 0  0.25 0.15625 0  0.28125 0.15625 0  0.3125 0.15625 0  0.34375 0.15625 0  0.375 0.15625 0  0.40625 0.15625 0  0.4375 0.15625 0  0.46875 0.15625 0  0.5 0.15625 0  0.53125 0.15625 0  0.5625 0.15625 0  0.59375 0.15625 0  0.625 0.15625 0  0.65625 0.15625 0  0.6875 0.15625 0  0.71875 0.15625 0  0.75 0.15625 0  0.78125 0.15625 0  0.8125 0.15625 0  0.84375 0.15625 0  0.875 0.15625 0  0.90625 0.15625 0  0.9375 0.15625 0  0.96875 0.15625 0  1 0.15625 0  0 0.1875 0  0.03125 0.1875 0  0.0625 0.1875 0  0.09375 0.1875 0  0.125 0.1875 0  0.15625 0.1875 0  0.1875 0.1875 0  0.21875 0.1875 0  0.25 0.1875 0  0.28125 0.1875 0  0.3125 0.1875 0  0.34375 0.1875 0  0.375 0.1875 0  0.40625 0.1875 0  0.4375 0.1875 0  0.46875 0.1875 0  0.5 0.1875 0  0.53125 0.1875 0  0.5625 0.1875 0  0.59375 0.1875 0  0.625 0.1875 0  0.65625 0.1875 0  0.6875 0.1875 0  0.71875 0.1875 0  0.75 0.1875 0  0.78125 0.1875 0  0.8125 0.1875 0  0.84375 0.1875 0  0.875 0.1875 0  0.90625 0.1875 0  0.9375 0.1875 0  0.96875 0.1875 0  1 0.1875 0  0 0.21875 0  0.03125 0.21875 0  0.0625 0.21875 0  0.09375 0.21875 0  0.125 0.21875 0  0.15625 0.21875 0  0.1875 0.21875 0  0.21875 0.21875 0  0.25 0.21875 0  0.28125 0.21875 0  0.3125 0.21875 0  0.34375 0.21875 0  0.375 0.21875 0  0.40625 0.21875 0  0.4375 0.21875 0  0.46875 0.21875 0  0.5 0.21875 0  0.53125 0.21875 0  0.5625 0.21875 0  0.59375 0.21875 0  0.625 0.21875 0  0.65625 0.21875 0  0.6875 0.21875 0  0.71875 0.21875 0  0.75 0.21875 0  0.78125 0.21875 0  0.8125 0.21875 0  0.84375 0.21875 0  0.875 0.21875 0  0.90625 0.21875 0  0.9375 0.21875 0  0.96875 0.21875 0  1 0.21875 0  0 0.25 0  0.03125 0.25 0  0.0625 0.25 0  0.09375 0.25 0  0.125 0.25 0  0.15625 0.25 0  0.1875 0.25 0  0.21875 0.25 0  0.25 0.25 0  0.28125 0.25 0  0.3125 0.25 0  0.34375 0.25 0  0.375 0.25 0  0.40625 0.25 0  0.4375 0.25 0  0.46875 0.25 0  0.5 0.25 0  0.53125 0.25 0  0.5625 0.25 0  0.59375 0.25 0  0.625 0.25 0  0.65625 0.25 0  0.6875 0.25 0  0.71875 0.25 0  0.75 0.25 0  0.78125 0.25 0  0.8125 0.25 0  0.84375 0.25 0  0.875 0.25 0  0.90625 0.25 0  0.9375 0.25 0  0.96875 0.25 0  1 0.25 0  0 0.28125 0  0.03125 0.28125 0  0.0625 0.28125 0  0.09375 0.28125 0  0.125 0.28125 0  0.15625 0.28125 0  0.1875 0.28125 0  0.21875 0.28125 0  0.25 0.28125 0  0.28125 0.28125 0  0.3125 0.28125 0  0.34375 0.28125 0  0.375 0.28125 0  0.40625 0.28125 0  0.4375 0.28125 0  0.46875 0.28125 0  0.5 0.28125 0  0.53125 0.28125 0  0.5625 0.28125 0  0.59375 0.28125 0  0.625 0.28125 0  0.65625 0.28125 0  0.6875 0.28125 0  0.71875 0.28125 0  0.75 0.28125 0  0.78125 0.28125 0  0.8125 0.28125 0  0.84375 0.28125 0  0.875 0.28125 0  0.90625 0.28125 0  0.9375 0.28125 0  0.96875 0.28125 0  1 0.28125 0  0 0.3125 0  0.03125 0.3125 0  0.0625 0.3125 0  0.09375 0.3125 0  0.125 0.3125 0  0.15625 0.3125 0  0.1875 0.3125 0  0.21875 0.3125 0  0.25 0.3125 0  0.28125 0.3125 0  0.3125 0.3125 0  0.34375 0.3125 0  0.375 0.3125 0  0.40625 0.3125 0  0.4375 0.3125 0  0.46875 0.3125 0  0.5 0.3125 0  0.53125 0.3125 0  0.5625 0.3125 0  0.59375 0.3125 0  0.625 0.3125 0  0.65625 0.3125 0  0.6875 0.3125 0  0.71875 0.3125 0  0.75 0.3125 0  0.78125 0.3125 0  0.8125 0.3125 0  0.84375 0.3125 0  0.875 0.3125 0  0.90625 0.3125 0  0.9375 0.3125 0  0.96875 0.3125 0  1 0.3125 0  0 0.34375 0  0.03125 0.34375 0  0.0625 0.34375 0  0.09375 0.34375 0  0.125 0.34375 0  0.15625 0.34375 0  0.1875 0.34375 0  0.21875 0.34375 0  0.25 0.34375 0  0.28125 0.34375 0  0.3125 0.34375 0  0.34375 0.34375 0  0.375 0.34375 0  0.40625 0.34375 0  0.4375 0.34375 0  0.46875 0.34375 0  0.5 0.34375 0  0.53125 0.34375 0  0.5625 0.34375 0  0.59375 0.34375 0  0.625 0.34375 0  0.65625 0.34375 0  0.6875 0.34375 0  0.71875 0.34375 0  0.75 0.34375 0  0.78125 0.34375 0  0.8125 0.34375 0  0.84375 0.34375 0  0.875 0.34375 0  0.90625 0.34375 0  0.9375 0.34375 0  0.96875 0.34375 0  1 0.34375 0  0 0.375 0  0.03125 0.375 0  0.0625 0.375 0  0.09375 0.375 0  0.125 0.375 0  0.15625 0.375 0  0.1875 0.375 0  0.21875 0.375 0  0.25 0.375 0  0.28125 0.375 0  0.3125 0.375 0  0.34375 0.375 0  0.375 0.375 0  0.40625 0.375 0  0.4375 0.375 0  0.46875 0.375 0  0.5 0.375 0  0.53125 0.375 0  0.5625 0.375 0  0.59375 0.375 0  0.625 0.375 0  0.65625 0.375 0  0.6875 0.375 0  0.71875 0.375 0  0.75 0.375 0  0.78125 0.375 0  0.8125 0.375 0  0.84375 0.375 0  0.875 0.375 0  0.90625 0.375 0  0.9375 0.375 0  0.96875 0.375 0  1 0.375 0  0 0.40625 0  0.03125 0.40625 0  0.0625 0.40625 0  0.09375 0.40625 0  0.125 0.40625 0  0.15625 0.40625 0  0.1875 0.40625 0  0.21875 0.40625 0  0.25 0.40625 0  0.28125 0.40625 0  0.3125 0.40625 0  0.34375 0.40625 0  0.375 0.40625 0  0.40625 0.40625 0  0.4375 0.40625 0  0.46875 0.40625 0  0.5 0.40625 0  0.53125 0.40625 0  0.5625 0.40625 0  0.59375 0.40625 0  0.625 0.40625 0  0.65625 0.40625 0  0.6875 0.40625 0  0.71875 0.40625 0  0.75 0.40625 0  0.78125 0.40625 0  0.8125 0.40625 0  0.84375 0.40625 0  0.875 0.40625 0  0.90625 0.40625 0  0.9375 0.40625 0  0.96875 0.40625 0  1 0.40625 0  0 0.4375 0  0.03125 0.4375 0  0.0625 0.4375 0  0.09375 0.4375 0  0.125 0.4375 0  0.15625 0.4375 0  0.1875 0.4375 0  0.21875 0.4375 0  0.25 0.4375 0  0.28125 0.4375 0  0.3125 0.4375 0  0.34375 0.4375 0  0.375 0.4375 0  0.40625 0.4375 0  0.4375 0.4375 0  0.46875 0.4375 0  0.5 0.4375 0  0.53125 0.4375 0  0.5625 0.4375 0  0.59375 0.4375 0  0.625 0.4375 0  0.65625 0.4375 0  0.6875 0.4375 0  0.71875 0.4375 0  0.75 0.4375 0  0.78125 0.4375 0  0.8125 0.4375 0  0.84375 0.4375 0  0.875 0.4375 0  0.90625 0.4375 0  0.9375 0.4375 0  0.96875 0.4375 0  1 0.4375 0  0 0.46875 0  0.03125 0.46875 0  0.0625 0.46875 0  0.09375 0.46875 0  0.125 0.46875 0  0.15625 0.46875 0  0.1875 0.46875 0  0.21875 0.46875 0  0.25 0.46875 0  0.28125 0.46875 0  0.3125 0.46875 0  0.34375 0.46875 0  0.375 0.46875 0  0.40625 0.46875 0  0.4375 0.46875 0  0.46875 0.46875 0  0.5 0.46875 0  0.53125 0.46875 0  0.5625 0.46875 0  0.59375 0.46875 0  0.625 0.46875 0  0.65625 0.46875 0  0.6875 0.46875 0  0.71875 0.46875 0  0.75 0.46875 0  0.78125 0.46875 0  0.8125 0.46875 0  0.84375 0.46875 0  0.875 0.46875 0  0.90625 0.46875 0  0.9375 0.46875 0  0.96875 0.46875 0  1 0.46875 0  0 0.5 0  0.03125 0.5 0  0.0625 0.5 0  0.09375 0.5 0  0.125 0.5 0  0.15625 0.5 0  0.1875 0.5 0  0.21875 0.5 0  0.25 0.5 0  0.28125 0.5 0  0.3125 0.5 0  0.34375 0.5 0  0.375 0.5 0  0.40625 0.5 0  0.4375 0.5 0  0.46875 0.5 0  0.5 0.5 0  0.53125 0.5 0  0.5625 0.5 0  0.59375 0.5 0  0.625 0.5 0  0.65625 0.5 0  0.6875 0.5 0  0.71875 0.5 0  0.75 0.5 0  0.78125 0.5 0  0.8125 0.5 0  0.84375 0.5 0  0.875 0.5 0  0.90625 0.5 0  0.9375 0.5 0  0.96875 0.5 0  1 0.5 0  0 0.53125 0  0.03125 0.53125 0  0.0625 0.53125 0  0.09375 0.53125 0  0.125 0.53125 0  0.15625 0.53125 0  0.1875 0.53125 0  0.21875 0.53125 0  0.25 0.53125 0  0.28125 0.53125 0  0.3125 0.53125 0  0.34375 0.53125 0  0.375 0.53125 0  0.40625 0.53125 0  0.4375 0.53125 0  0.46875 0.53125 0  0.5 0.53125 0  0.53125 0.53125 0  0.5625 0.53125 0  0.59375 0.53125 0  0.625 0.53125 0  0.65625 0.53125 0  0.6875 0.53125 0  0.71875 0.53125 0  0.75 0.53125 0  0.78125 0.531
[...]
<PointData  Scalars="u"> 
<DataArray  type="Float64"  Name="u"  format="ascii">0.0000000000000000e+00  0.0000000000000000e+00  0.0000000000000000e+00  0.0000000000000000e+00  0.0000000000000000e+00  0.0000000000000000e+00  0.0000000000000000e+00  0.0000000000000000e+00  0.0000000000000000e+00  0.0000000000000000e+00  0.0000000000000000e+00  0.0000000000000000e+00  0.0000000000000000e+00  0.0000000000000000e+00  0.0000000000000000e+00  0.0000000000000000e+00  0.0000000000000000e+00  0.0000000000000000e+00  0.0000000000000000e+00  0.0000000000000000e+00  0.0000000000000000e+00  0.0000000000000000e+00  0.0000000000000000e+00  0.0000000000000000e+00  0.0000000000000000e+00  0.0000000000000000e+00  0.0000000000000000e+00  0.0000000000000000e+00  0.0000000000000000e+00  0.0000000000000000e+00  0.0000000000000000e+00  0.0000000000000000e+00  0.0000000000000000e+00  0.0000000000000000e+00  3.8208330749197458e-03  7.6855917866194574e-03  1.1595982785050300e-02  1.5505325086412657e-02  1.9300014961369787e-02  2.2797153475010531e-02  2.5766774559986112e-02  2.7981586367794443e-02  2.9286856798937253e-02  2.9678408265232829e-02  2.9350628324810751e-02  2.8651660797269711e-02  2.7971033497274912e-02  2.7649543464926901e-02  2.7936782603365448e-02  2.8978128228836768e-02  3.0806781766837207e-02  3.3326459263586475e-02  3.6285035216384876e-02  3.9256277429492968e-02  4.1661428330146466e-02  4.2860668126835921e-02  4.2317609294562158e-02  3.9827779988418952e-02  3.5678703458280198e-02  3.0494516698388340e-02  2.4906258501282461e-02  1.9362959317284802e-02  1.4097446055459352e-02  9.1672611899455813e-03  4.5117442686377750e-03  0.0000000000000000e+00  0.0000000000000000e+00  7.7543008871441693e-03  1.5614878482531919e-02  2.3612118615021497e-02  3.1668843965164180e-02  3.9557101601175162e-02  4.6885253791592668e-02  5.3140109653503326e-02  5.7794586323181005e-02  6.0460349974209196e-02  6.1082489244720505e-02  6.0098384851750092e-02  5.8322113085295231e-02  5.6628729419717444e-02  5.5747549308296583e-02  5.6194533725836208e-02  5.8270117065844201e-02  6.2057320015227471e-02  6.7386659093580853e-02  7.3766395131890025e-02  8.0314773741611820e-02  8.5774251813944602e-02  8.8692914376168941e-02  8.7764400743000626e-02  8.2418836716590491e-02  7.3390314964675504e-02  6.2263468584395132e-02  5.0496648687362186e-02  3.9028488501855300e-02  2.8288286030168579e-02  1.8336667826122942e-02  9.0053388424962931e-03  0.0000000000000000e+00  0.0000000000000000e+00  1.1872691848994001e-02  2.3965150983826067e-02  3.6387607334115349e-02  4.9071094633634238e-02  6.1680019682552642e-02  7.3564446989952334e-02  8.3812802294783051e-02  9.1439675247485003e-02  9.5625971345518201e-02  9.6109560906537286e-02  9.3693952971678277e-02  8.9986034941266557e-02  8.6565326707918333e-02  8.4628215816151819e-02  8.4967192123319268e-02  8.8043577302441792e-02  9.4024492829209674e-02  1.0273104220131524e-01  1.1348854647917959e-01  1.2493012573179615e-01  1.3492039591425189e-01  1.4083876412258375e-01  1.4000629511903409e-01  1.3091750260460885e-01  1.1521396895068992e-01  9.6431812200060821e-02  7.7265595639298662e-02  5.9146345315921681e-02  4.2568477051899631e-02  2.7461243804678091e-02  1.3447736975523232e-02  0.0000000000000000e+00  0.0000000000000000e+00  1.6197282048206973e-02  3.2812205334377530e-02  5.0122947767369266e-02  6.8149714578415524e-02  8.6487611773453821e-02  1.0416400397277541e-01  1.1966888474468559e-01  1.3130824163053167e-01  1.3743651000388174e-01  1.3707854033513917e-01  1.3167816902336629e-01  1.2448398829363472e-01  1.1815522551273187e-01  1.1439320690851691e-01  1.1420664364702184e-01  1.1818713533299108e-01  1.2663709348294952e-01  1.3950969002846703e-01  1.5612754310211599e-01  1.7469165222473076e-01  1.9187785872888741e-01  2.0344285043785920e-01  2.0408275086735733e-01  1.8937707190724787e-01  1.6314084774261842e-01  1.3362257255663754e-01  1.0520004181846263e-01  7.9489881291519668e-02  5.6693799584048091e-02  3.6358040088098592e-02  1.7744284966670170e-02  0.0000000000000000e+00  0.0000000000000000e+00  2.0663849514217521e-02  4.2058058129601908e-02  6.4764951156831188e-02  8.9052988476173808e-02  1.1457807595138544e-01  1.3999795752885294e-01  1.6283276045599537e-01  1.8043171708382547e-01  1.8969131752192264e-01  1.8717686623464014e-01  1.7560443715442420e-01  1.6228611804556964e-01  1.5135741298279484e-01  1.4478287436529524e-01  1.4352875073506732e-01  1.4819783926570115e-01  1.5928785780023447e-01  1.7715553251676078e-01  2.0159138503302906e-01  2.3073669802097579e-01  2.5943400160925739e-01  2.8191901084009957e-01  2.8828426820678849e-01  2.6382928989136434e-01  2.1836922794152119e-01  1.7321160617858386e-01  1.3334398905234171e-01  9.9248740014570638e-02  7.0092206037650678e-02  4.4675141469029060e-02  2.1729393483341394e-02  0.0000000000000000e+00  0.0000000000000000e+00  2.5089733271816093e-02  5.1347759558610456e-02  7.9843619278987504e-02  1.1138383269386409e-01  1.4605537700984483e-01  1.8226381786034318e-01  2.1556749494297986e-01  2.4261827708670408e-01  2.5871562430759920e-01  2.5148034748779491e-01  2.2648213879948068e-01  2.0291216353600172e-01  1.8541418670644677e-01  1.7507273316505079e-01  1.7219717379290078e-01  1.7715414591024636e-01  1.9067359420347513e-01  2.1393103631332355e-01  2.4824538086312531e-01  2.9330960477849705e-01  3.3938897218299358e-01  3.7315013011405584e-01  3.9021077939989085e-01  3.5531243176711358e-01  2.7827243579919880e-01  2.1181473817763385e-01  1.5930145337165175e-01  1.1692069500489176e-01  8.1870707609167689e-02  5.1918174604794018e-02  2.5183723889802154e-02  0.0000000000000000e+00  0.0000000000000000e+00  2.9159793081265400e-02  6.0004923399320738e-02  9.4273468152105272e-02  1.3375809251253301e-01  1.7992197998948550e-01  2.3205619541130651e-01  2.7977992495029591e-01  3.1193347440913499e-01  3.3805280107192437e-01  3.3022916913729561e-01  2.8218618729296741e-01  2.4370435094087609e-01  2.1852696351276540e-01  2.0410633115290777e-01  1.9928449834461004e-01  2.0389814209385829e-01  2.1882948466399010e-01  2.4636696215550463e-01  2.9110583716635718e-01  3.5251867772252382e-01  4.1992577472894183e-01  4.5980040995943261e-01  4.6539393525601852e-01  4.1926539926252843e-01  3.2391976719031912e-01  2.4150855602110280e-01  1.7930496139192553e-01  1.3057737422134413e-01  9.1013135982775356e-02  5.7565902832756914e-02  2.7886053578829378e-02  0.0000000000000000e+00  0.0000000000000000e+00  3.2468157651168936e-02  6.7070511171634054e-02  1.0622877266982390e-01  1.5309977186211479e-01  2.1234973973909260e-01  2.8208911761203465e-01  3.4657992185558834e-01  3.7486456199715767e-01  3.8212392575710086e-01  3.8018882359210954e-01  3.2606368258111113e-01  2.7841261424876479e-01  2.4805630968332504e-01  2.3069568028074430e-01  2.2412089239302413e-01  2.2759972037362447e-01  2.4180916455566603e-01  2.6924478683795838e-01  3.1565957817345591e-01  3.8529014699320990e-01  4.5052645674607328e-01  4.9370775417330187e-01  4.9546146890089915e-01  4.4454601657711978e-01  3.4415866611625645e-01  2.5663750719499456e-01  1.9050382074169050e-01  1.3877238527933944e-01  9.6785318927474412e-02  6.1257892163054564e-02  2.9688606040073055e-02  0.0000000000000000e+00  0.0000000000000000e+00  3.4661535834932242e-02  7.1607393205989897e-02  1.1351146568931458e-01  1.6411777370133335e-01  2.2981794414761508e-01  3.1479303643923245e-01  3.8017411205323054e-01  3.9956819220723688e-01  4.0517147656203500e-01  4.0470321548910204e-01  3.5258771303354897e-01  3.0395656916269448e-01  2.7266447113258696e-01  2.5454554730126089e-01  2.4696740813810450e-01  2.4870782848992334e-01  2.5983192589850018e-01  2.8159869081793082e-01  3.1614772755147924e-01  3.6464188431088068e-01  4.1691190943413325e-01  4.6365732166844953e-01  4.7248492107572126e-01  4.3200639420667436e-01  3.3958494924545801e-01  2.5647185312898779e-01  1.9234388041285355e-01  1.4122047824964654e-01  9.9065619194780768e-02  6.2950963659493958e-02  3.0579688287440607e-02  0.0000000000000000e+00  0.0000000000000000e+00  3.5667678714691065e-02  7.3371946591684625e-02  1.1537183172005946e-01  1.6441902286084611e-01  2.2394979440164403e-01  2.9735946008791120e-01  3.7187247408183527e-01  4.0805981364695199e-01  4.1430368641234666e-01  4.1350926782991326e-01  3.6553969647830964e-01  3.2111058046914709e-01  2.9300786321711964e-01  2.7673950820657145e-01  2.6938913254433566e-01  2.6937579393941086e-01  2.7624740819165061e-01  2.9033293685341072e-01  3.1199973423957467e-01  3.4012723554590957e-01  3.6972071917455146e-01  3.9512347258130076e-01  4.0299021654706918e-01  3.8445670682156075e-01  3.1407451131061570e-01  2.4370085558785759e-01  1.8647066210807695e-01  1.3890100150190501e-01  9.8429247542223097e-02  6.2965766125630707e-02  3.0703188614370873e-02  0.0000000000000000e+00  0.0000000000000000e+00  3.5795661142693169e-02  7.3150286797721495e-02  1.1364695926592130e-01  1.5884809696186564e-01  2.0994899995674315e-01  2.6659993878750576e-01  3.2393249366007959e-01  3.6930589208086978e-01  4.0150008162200385e-01  4.0274169220140954e-01  3.6553658356409979e-01  3.3161838732408100e-01  3.1119881428609342e-01  2.9969692664524189e-01  2.9416426182412236e-01  2.9287373693295843e-01  2.9520408779819796e-01  3.0129025259897463e-01  3.1123747093513271e-01  3.2399845586681270e-01  3.3649450044632923e-01  3.4415233301196135e-01  3.4044369048730949e-01  3.2098357696294977e-01  2.7706533877681638e-01  2.2431213806165476e-01  1.7636737922154375e-01  1.3380669418620869e-01  9.6005935731953665e-02  6.1913361630868448e-02  3.0327640252049488e-02  0.0000000000000000e+00  0.0000000000000000e+00  3.5572442705696365e-02  7.2193459956528150e-02  1.1081960056577611e-01  1.5216208782136137e-01  1.9633729105494027e-01  2.4219807827994025e-01  2.8646154972089233e-01  3.2402316173145068e-01  3.5293451306422868e-01  3.6414831354869032e-01  3.5340447773154482e-01  3.3897017834756887e-01  3.3088638004048920e-01  3.2714223542222887e-01  3.2517499327518118e-01  3.2323018939179604e-01  3.2086737645688140e-01  3.1880986828657537e-01  3.1801299166385866e-01  3.1836028793776672e-01  3.1811927478488522e-01  3.1422150695381690e-01  3.0281954331340810e-01  2.8091633832056018e-01  2.4695416499743794e-01  2.0668991471979500e-01  1.6637194592548774e-01  1.2833736552763580e-01  9.3149513177376839e-02  6.0527458181716572e-02  2.9776067944593559e-02  0.0000000000000000e+00  0.0000000000000000e+00  3.5552436260786940e-02  7.1723622327131933e-02  1.0899800373889845e-01  1.4757417226509195e-01  1.8714072719175340e-01  2.2660019162225797e-01  2.6390844972937855e-01  2.9648421581785328e-01  3.2234878588655769e-01  3.3880539978971741e-01  3.4615366836713690e-01  3.5093674357561266e-01  3.5736669103482965e-01  3.6404847474995322e-01  3.6744558667992117e-01  3.6527024223419186e-01  3.5741481183248686e-01  3.4612560825448735e-01  3.3451110070892359e-01  3.2392034819811810e-01  3.1366742917641355e-01  3.0160592019360843e-01  2.8491510111352236e-01  2.6138351387529124e-01  2.3073125753982254e-01  1.9570498797829650e-01  1.5960692306943453e-01  1.2443376537087303e-01  9.1029223664185144e-02  5.9465385636399658e-02  2.9343218452317823e-02  0.0000000000000000e+00  0.0000000000000000e+00  3.6211440626530055e-02  7.2730639342089232e-02  1.0972049342012410e-01  1.4707821992555825e-01  1.8432308520858084e-01  2.2054549875687596e-01  2.5450542442723489e-01  2.8498116439988402e-01  3.1126788312987846e-01  3.3329597576499520e-01  3.5268182324674091e-01  3.7284287510216185e-01  3.9545932490928803e-01  4.1628689240753203e-01  4.2741534640508194e-01  4.2508631098136529e-01  4.0935492445554933e-01  3.8549518704273311e-01  3.6140378771101428e-01  3.4017522151492602e-01  3.2158876510981949e-01  3.0361894967095132e-01  2.8317214311334538e-01  2.5749186634661064e-01  2.2648743147142311e-01  1.9238942312771695e-01  1.5744653775928724e-01  1.2319107549842392e-01  9.0386285639587421e-02  5.9168752632548158e-02  2.9232533335458472e-02  0.0000000000000000e+00  0.0000000000000000e+00  3.7914805823193155e-02  7.5950946796650265e-02  1.1406865015837019e-01  1.5196141226677298e-01  1.8901237346692434e-01  2.2438168228182120e-01  2.5726522318930611e-01  2.8728675670961018e-01  3.1488834993554327e-01  3.4157600086434048e-01  3.7017477829307965e-01  4.0452629619882746e-01  4.4796744654101156e-01  4.9112464951457641e-01  5.1386618418804819e-01  5.1128596565499551e-01  4.8220189480941589e-01  4.3754034674643716e-01  3.9744545765132899e-01  3.6528914349217156e-01  3.3980932906630168e-01  3.1835782163906379e-01  2.9615064641906191e-01  2.6755064730834272e-01  2.3300777291883507e-01  1.9655909981581471e-01  1.6015866662791953e-01  1.2495001894901026e-01  9.1491096999985921e-02  5.9809390834774587e-02  2.9525109811918603e-02  0.0000000000000000e+00  0.0000000000000000e+00  4.0916258860078700e-02  8.1903053689476354e-02  1.2282137522397306e-01  1.6318795725840296e-01  2.0214384440010064e-01  2.3864159146080105e-01  2.7190533801598349e-01  3.0200462933284167e-01  3.3028176588796715e-01  3.5956974687898180e-01  3.9421591557724733e-01  4.4001741706099928e-01  5.0463602976403221e-01  5.8110017261253777e-01  6.2053835861230833e-01  6.1883770311771824e-01  5.7473026296755014e-01  4.9820407021302249e-01  4.3817787664182872e-01  3.9572706512157219e-01  3.6531079102849195e-01  3.4440524200581485e-01  3.2523927025893062e-01  2.9234335784055965e-01  2.4921769704748936e-01  2.0739766076635735e-01  1.6729090138242966e-01  1.2944646153016504e-01  9.4176536489948670e-02  6.1284981622064666e-02  3.0171932921506238e-02  0.0000000000000000e+00  0.0000000000000000e+00  4.5348771805243208e-02  9.0896390918196374e-02  1.3653703938536399e-01  1.8162271550531078e-01  2.2484407827283143e-01  2.6446619644777553e-01  2.9915339496456000e-01  3.2898878720939206e-01  3.5600284759582779e-01  3.8434644240296789e-01  4.1997154018075611e-01  4.7023063017809758e-01  5.4454182807331075e-01  6.3694141674993676e-01  6.8789550856032577e-01  6.8828969436444154e-01  6.3789226938828492e-01  5.4673970597327126e-01  4.7456403971115724e-01  4.2662561217182204e-01  3.9301384735127987e-01  3.7006408017016379e-01  3.5898225770531411e-01  3.2683375371207868e-01  2.7205382507007175e-01  2.2334180367908030e-01  1.7784076385444983e-01  1.3589949788815223e-01  9.7868411755160201e-02  6.3229704889715826e-02  3.0997961259700835e-02  0.0000000000000000e+00  0.0000000000000000e+00  5.1179732278952381e-02  1.0295703909768077e-01  1.5549414875719197e-01  2.0807452260624132e-01  2.5867697270095769e-01  3.0402994132877026e-01  3.4120207492091881e-01  3.6975870636354208e-01  3.9225770319976294e-01  4.1451077785716728e-01  4.4450194355592043e-01  4.9049500834954579e-01  5.6204925523876936e-01  6.5420050506235516e-01  7.0700199793699481e-01  7.0967605816923296e-01  6.6163843651505627e-01  5.7174341157565289e-01  5.0046280663957199e-01  4.5613521938832791e-01  4.2213317170358139e-01  3.8550063034028692e-01  3.5730082135423874e-01  3.2643313580560407e-01  2.8737380333491602e-01  2.4299982610785908e-01  1.9057954825458298e-01  1.4301503377918534e-01  1.0157604501203643e-01  6.5027093644784345e-02  3.1715739506904914e-02  0.0000000000000000e+00  0.0000000000000000e+00  5.8114480150774590e-02  1.1762488167783874e-01  1.7940139434466312e-01  2.4305784558270394e-01  3.0577413393153102e-01  3.6111820247587673e-01  4.0238353324527754e-01  4.2811845519903724e-01  4.4116519174620122e-01  4.5011304499115012e-01  4.6690938253365488e-01  4.9974183520073318e-01  5.5507124437244704e-01  6.3120004712036992e-01  6.7785181664173821e-01  6.8335120719159848e-01  6.4750461959063510e-01  5.7399360468093552e-01  5.1354210983467297e-01  4.7907155340686097e-01  4.5672134138411946e-01  4.0389344394755061e-01  3.5912672922255745e-01  3.2446673561692008e-01  2.9712653517372978e-01  2.6817792907553545e-01  2.0425926723034685e-01  1.4859998306418157e-01  1.0380934733449723e-01  6.5847641567396559e-02  3.1963395000918299e-02  0.0000000000000000e+00  0.0000000000000000e+00  6.5457763214863546e-02  1.3360200062715374e-01  2.0673692472192967e-01  2.8595416718376099e-01  3.6877076365122025e-01  4.4220744017503699e-01  4.9021665706976597e-01  5.1128376821113963e-01  5.0710612183389825e-01  4.9149155132912403e-01  4.8752535021470922e-01  5.0132070721074196e-01  5.3314543219303889e-01  5.7727898982758230e-01  6.1065737356941063e-01  6.1914535885725619e-01  6.0099409538228865e-01  5.5924283397910368e-01  5.1498223487860306e-01  4.8431159385651418e-01  4.6761713519007625e-01  4.1620217536575427e-01  3.6126463772613648e-01  3.2449507537418332e-01  2.9761507829404044e-01  2.6862705953736327e-01  2.0594547838031863e-01  1.4789372110668000e-01  1.0260678916993435e-01  6.4832833852135258e-02  3.1406173674122441e-02  0.0000000000000000e+00  0.0000000000000000e+00  7.2007778783209381e-02  1.4834814646985278e-01  2.3358444858577690e-01  3.3261716280873888e-01  4.4063887671332336e-01  5.4015402039641924e-01  5.9764348832679981e-01  6.1330609028179017e-01  5.8835494249476827e-01  5.3519315726736005e-01  5.0485126944805758e-01  4.9981467153498349e-01  5.1430173976301841e-01  5.4035080871165320e-01  5.6527753691893201e-01  5.7848025360981559e-01  5.7468880781029985e-01  5.5258082985450296e-01  5.1719667590304230e-01  4.7955107434887712e-01  4.4954216543288744e-01  4.1493307870119650e-01  3.5559153171260882e-01  3.1432388474834827e-01  2.8923512246702615e-01  2.4297018839322332e-01  1.8964674439801391e-01  1.3891874193912690e-01  9.7217301208185836e-02  6.1666213220071230e-02  2.9921585587918350e-02  0.0000000000000000e+00  0.0000000000000000e+00  7.6176664385276177e-02  1.5808554383812873e-01  2.5243701806480234e-01  3.6842574328885791e-01  5.0183405516491442e-01  6.0529158594745758e-01  6.6376769673015468e-01  6.7372858697286175e-01  6.3528816228838358e-01  5.6069698231224174e-01  5.1138905302043436e-01  4.9365993098670652e-01  4.9911990136788675e-01  5.2006952019903330e-01  5.4732858557047681e-01  5.7050752793909587e-01  5.8215150949348216e-01  5.7414696505197393e-01  5.3590225583151252e-01  4.8050546322050247e-01  4.2937937205902943e-01  3.8297593773973859e-01  3.3246108643161221e-01  2.8743518417559810e-01  2.5269250023870243e-01  2.1199715040532813e-01  1.6672681382671761e-01  1.2525351693769257e-01  8.8883990826558984e-02  5.6809337395499399e-02  2.7668562222654753e-02  0.0000000000000000e+00  0.0000000000000000e+00  7.6576648989874152e-02  1.5930383331122011e-01  2.5552394906333420e-01  3.7553695769425199e-01  5.1678040268459313e-01  6.2170185040111181e-01  6.7638832505676894e-01  6.8139841011528568e-01  6.3681841599421085e-01  5.5592885130883796e-01  5.0067185017340077e-01  4.7890479494831273e-01  4.8331784572467218e-01  5.0860993144065936e-01  5.4877140152769033e-01  5.8940595572836085e-01  6.1487505157603906e-01  6.2158251741616077e-01  5.7620138415312117e-01  4.9024169736915613e-01  4.1651538405641952e-01  3.5652070664411767e-01  3.0408168296317428e-01  2.5887728106813657e-01  2.2004795047418893e-01  1.8240944040382329e-01  1.4522038135164170e-01  1.1058925997380387e-01  7.9292288361829402e-02  5.1023264483175110e-02  2.4943647340445130e-02  0.0000000000000000e+00  0.0000000000000000e+00  7.2743766928539982e-02  1.5087241103266702e-01  2.4057735031069774e-01  3.5000262115087866e-01  4.8216396174072651e-01  5.8492490529955843e-01  6.3643814844600199e-01  6.3721895460013689e-01  5.9275572370678487e-01  5.2012259373835990e-01  4.7030410741054540e-01  4.5201850328383075e-01  4.6093287071133476e-01  4.9683595417392123e-01  5.5497760113073480e-01  6.1925399479331489e-01  6.5247495101471642e-01  6.4962104768096762e-01  5.9440362929781110e-01  4.9082193440112276e-01  4.0144602538856777e-01  3.3290850541519262e-01  2.7772058413569056e-01  2.3205857164688520e-01  1.9321358577259143e-01  1.5828461251955450e-01  1.2600437682470550e-01  9.6408351517757729e-02  6.9496747500123468e-02  4.4912864325263889e-02  2.2014720320901449e-02  0.0000000000000000e+00  0.0000000000000000e+00  6.5337891512285903e-02  1.3450395743739141e-01  2.1136244770073145e-01  2.9943233009550557e-01  4