<?xml version="1.0"?>
<VTKFile type="UnstructuredGrid"  version="0.1"  >
<UnstructuredGrid>
<Piece  NumberOfPoints="1089" NumberOfCells="2048">
<Points>
<DataArray  type="Float64"  NumberOfComponents="3"  format="ascii">0 0 0  0.03125 0 0  0.0625 0 0  0.09375 0 0  0.125 0 0  0.15625 0 0  0.1875 0 0  0.21875 0 0  0.25 0 0  0.28125 0 0  0.3125 0 0  0.34375 0 0  0.375 0 0  0.40625 0 0  0.4375 0 0  0.46875 0 0  0.5 0 0  0.53125 0 0  0.5625 0 0  0.59375 0 0  0.625 0 0  0.65625 0 0  0.6875 0 0  0.71875 0 0  0.75 0 0  0.78125 0 0  0.8125 0 0  0.84375 0 0  0.875 0 0  0.90625 0 0  0.9375 0 0  0.96875 0 0  1 0 0  0 0.03125 0  0.03125 0.03125 0  0.0625 0.03125 0  0.09375 0.03125 0  0.125 0.03125 0  0.15625 0.03125 0  0.1875 0.03125 0  0.21875 0.03125 0  0.25 0.03125 0  0.28125 0.03125 0  0.3125 0.03125 0  0.34375 0.03125 0  0.375 0.03125 0  0.40625 0.03125 0  0.4375 0.03125 0  0.46875 0.03125 0  0.5 0.03125 0  0.53125 0.03125 0  0.5625 0.03125 0  0.59375 0.03125 0  0.625 0.03125 0  0.65625 0.03125 0  0.6875 0.03125 0  0.71875 0.03125 0  0.75 0.03125 0  0.78125 0.03125 0  0.8125 0.03125 0  0.84375 0.03125 0  0.875 0.03125 0  0.90625 0.03125 0  0.9375 0.03125 0  0.96875 0.03125 0  1 0.03125 0  0 0.0625 0  0.03125 0.0625 0  0.0625 0.0625 0  0.09375 0.0625 0  0.125 0.0625 0  0.15625 0.0625 0  0.1875 0.0625 0  0.21875 0.0625 0  0.25 0.0625 0  0.28125 0.0625 0  0.3125 0.0625 0  0.34375 0.0625 0  0.375 0.0625 0  0.40625 0.0625 0  0.4375 0.0625 0  0.46875 0.0625 0  0.5 0.0625 0  0.53125 0.0625 0  0.5625 0.0625 0  0.59375 0.0625 0  0.625 0.0625 0  0.65625 0.0625 0  0.6875 0.0625 0  0.71875 0.0625 0  0.75 0.0625 0  0.78125 0.0625 0  0.8125 0.0625 0  0.84375 0.0625 0  0.875 0.0625 0  0.90625 0.0625 0  0.9375 0.0625 0  0.96875 0.0625 0  1 0.0625 0  0 0.09375 0  0.03125 0.09375 0  0.0625 0.09375 0  0.09375 0.09375 0  0.125 0.09375 0  0.15625 0.09375 0  0.1875 0.09375 0  0.21875 0.09375 0  0.25 0.09375 0  0.28125 0.09375 0  0.3125 0.09375 0  0.34375 0.09375 0  0.375 0.09375 0  0.40625 0.09375 0  0.4375 0.09375 0  0.46875 0.09375 0  0.5 0.09375 0  0.53125 0.09375 0  0.5625 0.09375 0  0.59375 0.09375 0  0.625 0.09375 0  0.65625 0.09375 0  0.6875 0.09375 0  0.71875 0.09375 0  0.75 0.09375 0  0.78125 0.09375 0  0.8125 0.09375 0  0.84375 0.09375 0  0.875 0.09375 0  0.90625 0.09375 0  0.9375 0.09375 0  0.96875 0.09375 0  1 0.09375 0  0 0.125 0  0.03125 0.125 0  0.0625 0.125 0  0.09375 0.125 0  0.125 0.125 0  0.15625 0.125 0  0.1875 0.125 0  0.21875 0.125 0  0.25 0.125 0  0.28125 0.125 0  0.3125 0.125 0  0.34375 0.125 0  0.375 0.125 0  0.40625 0.125 0  0.4375 0.125 0  0.46875 0.125 0  0.5 0.125 0  0.53125 0.125 0  0.5625 0.125 0  0.59375 0.125 0  0.625 0.125 0  0.65625 0.125 0  0.6875 0.125 0  0.71875 0.125 0  0.75 0.125 0  0.78125 0.125 0  0.8125 0.125 0  0.84375 0.125 0  0.875 0.125 0  0.90625 0.125 0  0.9375 0.125 0  0.96875 0.125 0  1 0.125 0  0 0.15625 0  0.03125 0.15625 0  0.0625 0.15625 0  0.09375 0.15625 0  0.125 0.15625 0  0.15625 0.15625 0  0.1875 0.15625 0  0.21875 0.15625 0  0.25 0.15625 0  0.28125 0.15625 0  0.3125 0.15625 0  0.34375 0.15625 0  0.375 0.15625 0  0.40625 0.15625 0  0.4375 0.15625 0  0.46875 0.15625 0  0.5 0.15625 0  0.53125 0.15625 0  0.5625 0.15625 0  0.59375 0.15625 0  0.625 0.15625 0  0.65625 0.15625 0  0.6875 0.15625 0  0.71875 0.15625 0  0.75 0.15625 0  0.78125 0.15625 0  0.8125 0.15625 0  0.84375 0.15625 0  0.875 0.15625 0  0.90625 0.15625 0  0.9375 0.15625 0  0.96875 0.15625 0  1 0.15625 0  0 0.1875 0  0.03125 0.1875 0  0.0625 0.1875 0  0.09375 0.1875 0  0.125 0.1875 0  0.15625 0.1875 0  0.1875 0.1875 0  0.21875 0.1875 0  0.25 0.1875 0  0.28125 0.1875 0  0.3125 0.1875 0  0.34375 0.1875 0  0.375 0.1875 0  0.40625 0.1875 0  0.4375 0.1875 0  0.46875 0.1875 0  0.5 0.1875 0  0.53125 0.1875 0  0.5625 0.1875 0  0.59375 0.1875 0  0.625 0.1875 0  0.65625 0.1875 0  0.6875 0.1875 0  0.71875 0.1875 0  0.75 0.1875 0  0.78125 0.1875 0  0.8125 0.1875 0  0.84375 0.1875 0  0.875 0.1875 0  0.90625 0.1875 0  0.9375 0.1875 0  0.96875 0.1875 0  1 0.1875 0  0 0.21875 0  0.03125 0.21875 0  0.0625 0.21875 0  0.09375 0.21875 0  0.125 0.21875 0  0.15625 0.21875 0  0.1875 0.21875 0  0.21875 0.21875 0  0.25 0.21875 0  0.28125 0.21875 0  0.3125 0.21875 0  0.34375 0.21875 0  0.375 0.21875 0  0.40625 0.21875 0  0.4375 0.21875 0  0.46875 0.21875 0  0.5 0.21875 0  0.53125 0.21875 0  0.5625 0.21875 0  0.59375 0.21875 0  0.625 0.21875 0  0.65625 0.21875 0  0.6875 0.21875 0  0.71875 0.21875 0  0.75 0.21875 0  0.78125 0.21875 0  0.8125 0.21875 0  0.84375 0.21875 0  0.875 0.21875 0  0.90625 0.21875 0  0.9375 0.21875 0  0.96875 0.21875 0  1 0.21875 0  0 0.25 0  0.03125 0.25 0  0.0625 0.25 0  0.09375 0.25 0  0.125 0.25 0  0.15625 0.25 0  0.1875 0.25 0  0.21875 0.25 0  0.25 0.25 0  0.28125 0.25 0  0.3125 0.25 0  0.34375 0.25 0  0.375 0.25 0  0.40625 0.25 0  0.4375 0.25 0  0.46875 0.25 0  0.5 0.25 0  0.53125 0.25 0  0.5625 0.25 0  0.59375 0.25 0  0.625 0.25 0  0.65625 0.25 0  0.6875 0.25 0  0.71875 0.25 0  0.75 0.25 0  0.78125 0.25 0  0.8125 0.25 0  0.84375 0.25 0  0.875 0.25 0  0.90625 0.25 0  0.9375 0.25 0  0.96875 0.25 0  1 0.25 0  0 0.28125 0  0.03125 0.28125 0  0.0625 0.28125 0  0.09375 0.28125 0  0.125 0.28125 0  0.15625 0.28125 0  0.1875 0.28125 0  0.21875 0.28125 0  0.25 0.28125 0  0.28125 0.28125 0  0.3125 0.28125 0  0.34375 0.28125 0  0.375 0.28125 0  0.40625 0.28125 0  0.4375 0.28125 0  0.46875 0.28125 0  0.5 0.28125 0  0.53125 0.28125 0  0.5625 0.28125 0  0.59375 0.28125 0  0.625 0.28125 0  0.65625 0.28125 0  0.6875 0.28125 0  0.71875 0.28125 0  0.75 0.28125 0  0.78125 0.28125 0  0.8125 0.28125 0  0.84375 0.28125 0  0.875 0.28125 0  0.90625 0.28125 0  0.9375 0.28125 0  0.96875 0.28125 0  1 0.28125 0  0 0.3125 0  0.03125 0.3125 0  0.0625 0.3125 0  0.09375 0.3125 0  0.125 0.3125 0  0.15625 0.3125 0  0.1875 0.3125 0  0.21875 0.3125 0  0.25 0.3125 0  0.28125 0.3125 0  0.3125 0.3125 0  0.34375 0.3125 0  0.375 0.3125 0  0.40625 0.3125 0  0.4375 0.3125 0  0.46875 0.3125 0  0.5 0.3125 0  0.53125 0.3125 0  0.5625 0.3125 0  0.59375 0.3125 0  0.625 0.3125 0  0.65625 0.3125 0  0.6875 0.3125 0  0.71875 0.3125 0  0.75 0.3125 0  0.78125 0.3125 0  0.8125 0.3125 0  0.84375 0.3125 0  0.875 0.3125 0  0.90625 0.3125 0  0.9375 0.3125 0  0.96875 0.3125 0  1 0.3125 0  0 0.34375 0  0.03125 0.34375 0  0.0625 0.34375 0  0.09375 0.34375 0  0.125 0.34375 0  0.15625 0.34375 0  0.1875 0.34375 0  0.21875 0.34375 0  0.25 0.34375 0  0.28125 0.34375 0  0.3125 0.34375 0  0.34375 0.34375 0  0.375 0.34375 0  0.40625 0.34375 0  0.4375 0.34375 0  0.46875 0.34375 0  0.5 0.34375 0  0.53125 0.34375 0  0.5625 0.34375 0  0.59375 0.34375 0  0.625 0.34375 0  0.65625 0.34375 0  0.6875 0.34375 0  0.71875 0.34375 0  0.75 0.34375 0  0.78125 0.34375 0  0.8125 0.34375 0  0.84375 0.34375 0  0.875 0.34375 0  0.90625 0.34375 0  0.9375 0.34375 0  0.96875 0.34375 0  1 0.34375 0  0 0.375 0  0.03125 0.375 0  0.0625 0.375 0  0.09375 0.375 0  0.125 0.375 0  0.15625 0.375 0  0.1875 0.375 0  0.21875 0.375 0  0.25 0.375 0  0.28125 0.375 0  0.3125 0.375 0  0.34375 0.375 0  0.375 0.375 0  0.40625 0.375 0  0.4375 0.375 0  0.46875 0.375 0  0.5 0.375 0  0.53125 0.375 0  0.5625 0.375 0  0.59375 0.375 0  0.625 0.375 0  0.65625 0.375 0  0.6875 0.375 0  0.71875 0.375 0  0.75 0.375 0  0.78125 0.375 0  0.8125 0.375 0  0.84375 0.375 0  0.875 0.375 0  0.90625 0.375 0  0.9375 0.375 0  0.96875 0.375 0  1 0.375 0  0 0.40625 0  0.03125 0.40625 0  0.0625 0.40625 0  0.09375 0.40625 0  0.125 0.40625 0  0.15625 0.40625 0  0.1875 0.40625 0  0.21875 0.40625 0  0.25 0.40625 0  0.28125 0.40625 0  0.3125 0.40625 0  0.34375 0.40625 0  0.375 0.40625 0  0.40625 0.40625 0  0.4375 0.40625 0  0.46875 0.40625 0  0.5 0.40625 0  0.53125 0.40625 0  0.5625 0.40625 0  0.59375 0.40625 0  0.625 0.40625 0  0.65625 0.40625 0  0.6875 0.40625 0  0.71875 0.40625 0  0.75 0.40625 0  0.78125 0.40625 0  0.8125 0.40625 0  0.84375 0.40625 0  0.875 0.40625 0  0.90625 0.40625 0  0.9375 0.40625 0  0.96875 0.40625 0  1 0.40625 0  0 0.4375 0  0.03125 0.4375 0  0.0625 0.4375 0  0.09375 0.4375 0  0.125 0.4375 0  0.15625 0.4375 0  0.1875 0.4375 0  0.21875 0.4375 0  0.25 0.4375 0  0.28125 0.4375 0  0.3125 0.4375 0  0.34375 0.4375 0  0.375 0.4375 0  0.40625 0.4375 0  0.4375 0.4375 0  0.46875 0.4375 0  0.5 0.4375 0  0.53125 0.4375 0  0.5625 0.4375 0  0.59375 0.4375 0  0.625 0.4375 0  0.65625 0.4375 0  0.6875 0.4375 0  0.71875 0.4375 0  0.75 0.4375 0  0.78125 0.4375 0  0.8125 0.4375 0  0.84375 0.4375 0  0.875 0.4375 0  0.90625 0.4375 0  0.9375 0.4375 0  0.96875 0.4375 0  1 0.4375 0  0 0.46875 0  0.03125 0.46875 0  0.0625 0.46875 0  0.09375 0.46875 0  0.125 0.46875 0  0.15625 0.46875 0  0.1875 0.46875 0  0.21875 0.46875 0  0.25 0.46875 0  0.28125 0.46875 0  0.3125 0.46875 0  0.34375 0.46875 0  0.375 0.46875 0  0.40625 0.46875 0  0.4375 0.46875 0  0.46875 0.46875 0  0.5 0.46875 0  0.53125 0.46875 0  0.5625 0.46875 0  0.59375 0.46875 0  0.625 0.46875 0  0.65625 0.46875 0  0.6875 0.46875 0  0.71875 0.46875 0  0.75 0.46875 0  0.78125 0.46875 0  0.8125 0.46875 0  0.84375 0.46875 0  0.875 0.46875 0  0.90625 0.46875 0  0.9375 0.46875 0  0.96875 0.46875 0  1 0.46875 0  0 0.5 0  0.03125 0.5 0  0.0625 0.5 0  0.09375 0.5 0  0.125 0.5 0  0.15625 0.5 0  0.1875 0.5 0  0.21875 0.5 0  0.25 0.5 0  0.28125 0.5 0  0.3125 0.5 0  0.34375 0.5 0  0.375 0.5 0  0.40625 0.5 0  0.4375 0.5 0  0.46875 0.5 0  0.5 0.5 0  0.53125 0.5 0  0.5625 0.5 0  0.59375 0.5 0  0.625 0.5 0  0.65625 0.5 0  0.6875 0.5 0  0.71875 0.5 0  0.75 0.5 0  0.78125 0.5 0  0.8125 0.5 0  0.84375 0.5 0  0.875 0.5 0  0.90625 0.5 0  0.9375 0.5 0  0.96875 0.5 0  1 0.5 0  0 0.53125 0  0.03125 0.53125 0  0.0625 0.53125 0  0.09375 0.53125 0  0.125 0.53125 0  0.15625 0.53125 0  0.1875 0.53125 0  0.21875 0.53125 0  0.25 0.53125 0  0.28125 0.53125 0  0.3125 0.53125 0  0.34375 0.53125 0  0.375 0.53125 0  0.40625 0.53125 0  0.4375 0.53125 0  0.46875 0.53125 0  0.5 0.53125 0  0.53125 0.53125 0  0.5625 0.53125 0  0.59375 0.53125 0  0.625 0.53125 0  0.65625 0.53125 0  0.6875 0.53125 0  0.71875 0.53125 0  0.75 0.53125 0  0.78125 0.531
[...]
<PointData  Scalars="u"> 
<DataArray  type="Float64"  Name="u"  format="ascii">0.0000000000000000e+00  0.0000000000000000e+00  0.0000000000000000e+00  0.0000000000000000e+00  0.0000000000000000e+00  0.0000000000000000e+00  0.0000000000000000e+00  0.0000000000000000e+00  0.0000000000000000e+00  0.0000000000000000e+00  0.0000000000000000e+00  0.0000000000000000e+00  0.0000000000000000e+00  0.0000000000000000e+00  0.0000000000000000e+00  0.0000000000000000e+00  0.0000000000000000e+00  0.0000000000000000e+00  0.0000000000000000e+00  0.0000000000000000e+00  0.0000000000000000e+00  0.0000000000000000e+00  0.0000000000000000e+00  0.0000000000000000e+00  0.0000000000000000e+00  0.0000000000000000e+00  0.0000000000000000e+00  0.0000000000000000e+00  0.0000000000000000e+00  0.0000000000000000e+00  0.0000000000000000e+00  0.0000000000000000e+00  0.0000000000000000e+00  0.0000000000000000e+00  1.4085820104367921e-02  2.8130801596823674e-02  4.2047910773942924e-02  5.5674177877314379e-02  6.8745746226538576e-02  8.0897859781299902e-02  9.1703144119812674e-02  1.0075216877114930e-01  1.0776406693391695e-01  1.1270778661879192e-01  1.1587480005826699e-01  1.1780659956907172e-01  1.1911643291107243e-01  1.2034447860811247e-01  1.2188662002067394e-01  1.2396981888502893e-01  1.2663724161057618e-01  1.2972146695756376e-01  1.3280647144171390e-01  1.3520465213288513e-01  1.3599713823354265e-01  1.3418240346036064e-01  1.2893633730934151e-01  1.1996816996038080e-01  1.0776753168869509e-01  9.3362500298883461e-02  7.7806799205090885e-02  6.1882693135511035e-02  4.6042643241320971e-02  3.0468443561799695e-02  1.5157790268884077e-02  0.0000000000000000e+00  0.0000000000000000e+00  2.8269679526495808e-02  5.6495514494201940e-02  8.4541002670242976e-02  1.1210444348766070e-01  1.3865700914312765e-01  1.6342940341352682e-01  1.8548463735643433e-01  2.0389173823683079e-01  2.1796688276610918e-01  2.2757553551639942e-01  2.3337469476094957e-01  2.3662802285502840e-01  2.3870942006942253e-01  2.4077268254685177e-01  2.4363577926429106e-01  2.4776833210149934e-01  2.5328345576110417e-01  2.5988335673154461e-01  2.6675691222565662e-01  2.7248544413962361e-01  2.7507861126764471e-01  2.7226918398232175e-01  2.6204995555396676e-01  2.4359171134716892e-01  2.1811802072126357e-01  1.8820192036794675e-01  1.5625193876615359e-01  1.2389384262409114e-01  9.1975056982748979e-02  6.0773212140566697e-02  3.0207886550438896e-02  0.0000000000000000e+00  0.0000000000000000e+00  4.2604184386685708e-02  8.5245757003829456e-02  1.2781902251626670e-01  1.6994419354829729e-01  2.1083859296336599e-01  2.4925246601721168e-01  2.8356181257182295e-01  3.1206949453352562e-01  3.3338433048656818e-01  3.4702625511251289e-01  3.5420595276209327e-01  3.5741105985092902e-01  3.5911212827860017e-01  3.6119703686658305e-01  3.6492171690202424e-01  3.7100846249362301e-01  3.7969498158484566e-01  3.9065390820029411e-01  4.0276937019507858e-01  4.1384933480128044e-01  4.2052869370423074e-01  4.1872825193997698e-01  4.0433202052428280e-01  3.7509536264151677e-01  3.3368459194837441e-01  2.8574140895527078e-01  2.3565635457612324e-01  1.8590038929431008e-01  1.3751059594965098e-01  9.0649761469058107e-02  4.4999591491863021e-02  0.0000000000000000e+00  0.0000000000000000e+00  5.7058479179874479e-02  1.1437052626500252e-01  1.7200022815439778e-01  2.2961686787847368e-01  2.8624479564908833e-01  3.4005583619350743e-01  3.8843147412543683e-01  4.2852284154749914e-01  4.5762134574456498e-01  4.7412124028262054e-01  4.8020666908946785e-01  4.8089334314571991e-01  4.8032389752086935e-01  4.8117724147292823e-01  4.8505416856450551e-01  4.9288354931260325e-01  5.0510892030550936e-01  5.2159490560172928e-01  5.4120314783907597e-01  5.6105528030888507e-01  5.7593821359643504e-01  5.7926659736063568e-01  5.6289137668830469e-01  5.2010702331813696e-01  4.5697010974675301e-01  3.8643778532583622e-01  3.1556689382592207e-01  2.4719717802746241e-01  1.8199992724578387e-01  1.1963064897560323e-01  5.9292687565454701e-02  0.0000000000000000e+00  0.0000000000000000e+00  7.1467377017526895e-02  1.4358674047823650e-01  2.1680596001793367e-01  2.9109199667593583e-01  3.6547958318207291e-01  4.3749232308335040e-01  5.0294698180911446e-01  5.5746133095011519e-01  5.9603654726148247e-01  6.1325080316179004e-01  6.1323097870618071e-01  6.0724439258599483e-01  6.0171223818882791e-01  5.9972963188453277e-01  6.0284281963034148e-01  6.1200462510081421e-01  6.2795963343998806e-01  6.5118732641677257e-01  6.8125803845240263e-01  7.1518835898259547e-01  7.4493340603713976e-01  7.6156555203581600e-01  7.4986167967603445e-01  6.8731975700838921e-01  5.8927584369909358e-01  4.8884648299667188e-01  3.9409637865961766e-01  3.0619635709691301e-01  2.2430243927468940e-01  1.4699839218168709e-01  7.2743538329456237e-02  0.0000000000000000e+00  0.0000000000000000e+00  8.5483313872326966e-02  1.7221569145155408e-01  2.6131564055762463e-01  3.5349868551290409e-01  4.4838436064761122e-01  5.4303296659003697e-01  6.3017299686863226e-01  7.0428956884330540e-01  7.5787848382852996e-01  7.7171654136121304e-01  7.5430370133595870e-01  7.3518384328932307e-01  7.2156020099263873e-01  7.1517960123493973e-01  7.1658536882431112e-01  7.2637352002049094e-01  7.4564956477992672e-01  7.7615315023050713e-01  8.1980457933965312e-01  8.7600674129416656e-01  9.2967015687739429e-01  9.6022399535288117e-01  9.6096958871863880e-01  8.7778732097033274e-01  7.2605790717366481e-01  5.8731244329836341e-01  4.6717453718232616e-01  3.6027346538391347e-01  2.6280600569948265e-01  1.7183200067261334e-01  8.4933992822620527e-02  0.0000000000000000e+00  0.0000000000000000e+00  9.8558416310861749e-02  1.9909088673927239e-01  3.0367128436173685e-01  4.1445920654267698e-01  5.3311978046047870e-01  6.5800736506237056e-01  7.7264478804768688e-01  8.5943547710683021e-01  9.3274322208026039e-01  9.4940191098527749e-01  8.9965117908250847e-01  8.6010844906111728e-01  8.3658178655253068e-01  8.2522609629761756e-01  8.2432988267510632e-01  8.3367912624923324e-01  8.5462026013820591e-01  8.9061306867857271e-01  9.4862932804575961e-01  1.0277428128242554e+00  1.1114241449739952e+00  1.1480355814532928e+00  1.1272610721972207e+00  1.0224426648028140e+00  8.3774366393391175e-01  6.6925434289784991e-01  5.2867234328886759e-01  4.0619120998543723e-01  2.9574209868000112e-01  1.9319174450814705e-01  9.5454461625629178e-02  0.0000000000000000e+00  0.0000000000000000e+00  1.1001297659806140e-01  2.2262610406402122e-01  3.4089794513046995e-01  4.6902078697477850e-01  6.1352473289608378e-01  7.7088462455724227e-01  9.1632028097397478e-01  1.0017051229961424e+00  1.0500440356474439e+00  1.0793083331105879e+00  1.0231803371976858e+00  9.7193004236612424e-01  9.4224334078236838e-01  9.2756983766260925e-01  9.2457657358215184e-01  9.3217740782795533e-01  9.5141217544947998e-01  9.8607432549541518e-01  1.0449374927844113e+00  1.1344332507886019e+00  1.2119953928121530e+00  1.2504421962596317e+00  1.2200571584670179e+00  1.1037615780772216e+00  9.0682346076527520e-01  7.2566203799828977e-01  5.7394086517047938e-01  4.4151047654934916e-01  3.2181905286329271e-01  2.1041418302233869e-01  1.0402284855635939e-01  0.0000000000000000e+00  0.0000000000000000e+00  1.1925964471619492e-01  2.4129135238887392e-01  3.6948058072191248e-01  5.0886371359625482e-01  6.6856905298008484e-01  8.5436202096916214e-01  1.0058025418477863e+00  1.0817450336958525e+00  1.1313438372172557e+00  1.1661973659893830e+00  1.1159802136800590e+00  1.0654937955252834e+00  1.0360686648026196e+00  1.0213408048864514e+00  1.0173171141376780e+00  1.0221575686531266e+00  1.0359714538833955e+00  1.0606709468080948e+00  1.0994986584039872e+00  1.1541913559587922e+00  1.2090720114235303e+00  1.2498694202261329e+00  1.2268628767363086e+00  1.1227882992441722e+00  9.3397209478822374e-01  7.5519812140549247e-01  6.0194430418194322e-01  4.6564315664812528e-01  3.4073623668266728e-01  2.2335642419601728e-01  1.1058263068880635e-01  0.0000000000000000e+00  0.0000000000000000e+00  1.2615682191774713e-01  2.5465006533000184e-01  3.8817140943787132e-01  5.3017732519211491e-01  6.8519714244221852e-01  8.5773882879499874e-01  1.0274867084488450e+00  1.1331851195293803e+00  1.1872889082128673e+00  1.2247343457713773e+00  1.1835273368720214e+00  1.1416329776522374e+00  1.1187019998476322e+00  1.1078402682509869e+00  1.1046001235731391e+00  1.1065858269809099e+00  1.1131227988725358e+00  1.1247197290507867e+00  1.1419327630543092e+00  1.1630338028632297e+00  1.1803644985866821e+00  1.1853135958154859e+00  1.1575307149314908e+00  1.0836799227121536e+00  9.2500928975244212e-01  7.6187585485032394e-01  6.1510882182031368e-01  4.8000971943295268e-01  3.5331251607156472e-01  2.3246689551728969e-01  1.1533240841585445e-01  0.0000000000000000e+00  0.0000000000000000e+00  1.3116211443604772e-01  2.6387497294474888e-01  3.9973996944989176e-01  5.4033704708742891e-01  6.8670433224227145e-01  8.3754561867828747e-01  9.8467890639256694e-01  1.1080511582714090e+00  1.2053012486231958e+00  1.2487050233153232e+00  1.2264785029567660e+00  1.2027162232107971e+00  1.1930644951744669e+00  1.1904562001727772e+00  1.1903698451176425e+00  1.1901770993824479e+00  1.1889550676567899e+00  1.1869457576107934e+00  1.1843508300624355e+00  1.1796153415338373e+00  1.1680948017446344e+00  1.1429071017357528e+00  1.0942494346369687e+00  1.0157247726850853e+00  8.9439124130379066e-01  7.5485517032362459e-01  6.1875013549126368e-01  4.8764051256626262e-01  3.6125830909059276e-01  2.3866653158609369e-01  1.1867543005082173e-01  0.0000000000000000e+00  0.0000000000000000e+00  1.3507707785640269e-01  2.7087163916755297e-01  4.0797526849218946e-01  5.4661696983015373e-01  6.8613882791391712e-01  8.2398626998662794e-01  9.5438866838238690e-01  1.0688649324360175e+00  1.1639022124150133e+00  1.2251757324823014e+00  1.2458395482181455e+00  1.2538187825690248e+00  1.2644521745612147e+00  1.2745876219648076e+00  1.2802676318950061e+00  1.2788104389022246e+00  1.2695824453653368e+00  1.2537648873738931e+00  1.2329209849792058e+00  1.2069950005505627e+00  1.1734863553797263e+00  1.1278980594102563e+00  1.0646131434548933e+00  9.7941698041998460e-01  8.7040660740712661e-01  7.4702434632106285e-01  6.1953487939187291e-01  4.9222221471833982e-01  3.6665205034136444e-01  2.4308077274919071e-01  1.2110680128965032e-01  0.0000000000000000e+00  0.0000000000000000e+00  1.3874815413793881e-01  2.7750669581877219e-01  4.1609862171028378e-01  5.5392701876956341e-01  6.8964492210845851e-01  8.2074937585388497e-01  9.4335538968881705e-01  1.0528453603715018e+00  1.1456362667068627e+00  1.2171499666365122e+00  1.2675231612188096e+00  1.3065910001524197e+00  1.3406743055278534e+00  1.3675262665624088e+00  1.3816583824269897e+00  1.3795541360074959e+00  1.3611012094557928e+00  1.3298576826166282e+00  1.2907543520149660e+00  1.2460593180743580e+00  1.1949571712038838e+00  1.1344417789043251e+00  1.0605383034839784e+00  9.7028872389883203e-01  8.6378937453998905e-01  7.4586835386180572e-01  6.2226476450071333e-01  4.9674098841026199e-01  3.7129356301492400e-01  2.4672167160290298e-01  1.2308037435503291e-01  0.0000000000000000e+00  0.0000000000000000e+00  1.4289636246249862e-01  2.8528080431843539e-01  4.2644227529344769e-01  5.6528589679597718e-01  7.0017659074940086e-01  8.2887996614787696e-01  9.4873341233106978e-01  1.0571990874882655e+00  1.1526400101619483e+00  1.2345013118989427e+00  1.3049176065914032e+00  1.3688759656243970e+00  1.4287586954114888e+00  1.4778932359058816e+00  1.5040276580051264e+00  1.5013669903234939e+00  1.4700556522606210e+00  1.4183408347103656e+00  1.3585732290880308e+00  1.2957727327083672e+00  1.2299123596544432e+00  1.1582426512215822e+00  1.0764298359054685e+00  9.8072375671546608e-01  8.7154275645836432e-01  7.5293705877504635e-01  6.2902964718791565e-01  5.0286610881533156e-01  3.7631329389545581e-01  2.5026277499714611e-01  1.2490644220612973e-01  0.0000000000000000e+00  0.0000000000000000e+00  1.4806155475719179e-01  2.9528275173152424e-01  4.4060389562663299e-01  5.8258447406448355e-01  7.1935437514101475e-01  8.4876857334721956e-01  9.6882439877979443e-01  1.0782788447201894e+00  1.1772542772146308e+00  1.2676109210151962e+00  1.3533259660067811e+00  1.4400127250588852e+00  1.5325709842080437e+00  1.6163994798123138e+00  1.6604066428827016e+00  1.6570168622901935e+00  1.6044727389751954e+00  1.5197445728654018e+00  1.4340777638683773e+00  1.3529768771380219e+00  1.2748785499241224e+00  1.1961407763271468e+00  1.1098858497796904e+00  1.0079739516944566e+00  8.9168422641211642e-01  7.6786161135478515e-01  6.4017818322097353e-01  5.1107588641443091e-01  3.8209555588361782e-01  2.5394860189569018e-01  1.2670027914997323e-01  0.0000000000000000e+00  0.0000000000000000e+00  1.5459542871822193e-01  3.0823386732327046e-01  4.5966874156424264e-01  6.0715722585606713e-01  7.4843246559923027e-01  8.8101369704922894e-01  1.0029339078605002e+00  1.1136353589529187e+00  1.2146286816793479e+00  1.3098179976383486e+00  1.4055191270912524e+00  1.5103424115925630e+00  1.6358244398745900e+00  1.7710387992749737e+00  1.8406311367124755e+00  1.8382348981569230e+00  1.7619598388073263e+00  1.6273457470249966e+00  1.5099656550399332e+00  1.4118357060678557e+00  1.3248636315206783e+00  1.2456576179955985e+00  1.1627937932512062e+00  1.0530374380079319e+00  9.2238944336883499e-01  7.8924901545513060e-01  6.5490762734208552e-01  5.2088379035921506e-01  3.8832631514556587e-01  2.5758541200171892e-01  1.2836886582275320e-01  0.0000000000000000e+00  0.0000000000000000e+00  1.6264483822235390e-01  3.2449645958034112e-01  4.8432862421546652e-01  6.4011711339931188e-01  7.8887943171657871e-01  9.2706219032568593e-01  1.0518317584933592e+00  1.1626555101345106e+00  1.2621141139257437e+00  1.3561529952461646e+00  1.4535675832111676e+00  1.5653647600290936e+00  1.7057782491336588e+00  1.8654203919002190e+00  1.9525089106838678e+00  1.9529663069537349e+00  1.8664931623994243e+00  1.7087110920531043e+00  1.5718603002977425e+00  1.4644352221875365e+00  1.3716640487705634e+00  1.2884478039122942e+00  1.2172256538006887e+00  1.1079107800090617e+00  9.5873050642956081e-01  8.1451743644829133e-01  6.7153467521448817e-01  5.3098038487580235e-01  3.9404435821343337e-01  2.6056021405360269e-01  1.2961839587896296e-01  0.0000000000000000e+00  0.0000000000000000e+00  1.7208346117054388e-01  3.4396079666105867e-01  5.1479254140367325e-01  6.8242504792022485e-01  8.4276080549917953e-01  9.8986964446851022e-01  1.1184603150868486e+00  1.2272124195598413e+00  1.3195365917469852e+00  1.4039578015633316e+00  1.4924222377754175e+00  1.5973572325096816e+00  1.7332220929018851e+00  1.8921655806935747e+00  1.9817604465883885e+00  1.9853572744551478e+00  1.9021057251764653e+00  1.7458082242363129e+00  1.6098559196231161e+00  1.5075064651006385e+00  1.4136836936196981e+00  1.3090242200618178e+00  1.2111742854486371e+00  1.1036850315338087e+00  9.7870815126439614e-01  8.4133340545100799e-01  6.8801300397576926e-01  5.3925362646069863e-01  3.9763750703586193e-01  2.6186746099403702e-01  1.2997859842172979e-01  0.0000000000000000e+00  0.0000000000000000e+00  1.8236785342310108e-01  3.6574175020865957e-01  5.5035334022919369e-01  7.3453982136437923e-01  9.1296019141494744e-01  1.0748129933566939e+00  1.2089993226961324e+00  1.3126477795052809e+00  1.3896311288492356e+00  1.4527808286259136e+00  1.5201770174629954e+00  1.6041599812283340e+00  1.7144404888725189e+00  1.8482032630594178e+00  1.9279024423029394e+00  1.9354950861371265e+00  1.8707206854106366e+00  1.7394134600602069e+00  1.6199625590368454e+00  1.5326936178001835e+00  1.4568130198964524e+00  1.3273536109783695e+00  1.2042840030818291e+00  1.0914095631918199e+00  9.8510727353856098e-01  8.7229903096175554e-01  7.0227661756368909e-01  5.4221463548418136e-01  3.9672948778377815e-01  2.6017647013915896e-01  1.2886593647780561e-01  0.0000000000000000e+00  0.0000000000000000e+00  1.9233275201940897e-01  3.8765440768664883e-01  5.8839536086780009e-01  7.9515931845219323e-01  1.0031194693618606e+00  1.1913975390394320e+00  1.3345255517343546e+00  1.4295554210019406e+00  1.4786268365127833e+00  1.5026402663214804e+00  1.5368601570639202e+00  1.5904714031316562e+00  1.6636816780920134e+00  1.7474974698789418e+00  1.8062637307469320e+00  1.8181391729091445e+00  1.7804549767429869e+00  1.6980465092137618e+00  1.6036809138802197e+00  1.5225786846332123e+00  1.4558871429880089e+00  1.3292680101541314e+00  1.1914075071466033e+00  1.0763645953989884e+00  9.7206718566521921e-01  8.6070917864082075e-01  6.9430344861800974e-01  5.3244899398652967e-01  3.8823793421385550e-01  2.5412469884200078e-01  1.2574490593951737e-01  0.0000000000000000e+00  0.0000000000000000e+00  2.0003986179045002e-01  4.0561483361974948e-01  6.2263739164542464e-01  8.5757901962324379e-01  1.1020420399814250e+00  1.3282086549194525e+00  1.4837325388713767e+00  1.5683292499975245e+00  1.5834261803953589e+00  1.5477990883435755e+00  1.5397728013917309e+00  1.5629875592173408e+00  1.6083729887672034e+00  1.6635058206596591e+00  1.7087127432769718e+00  1.7275826891673574e+00  1.7120107749047329e+00  1.6601032668152806e+00  1.5799089266237707e+00  1.4888138888913329e+00  1.4026044896713155e+00  1.3030755136220573e+00  1.1599031093878227e+00  1.0396605045873604e+00  9.4009996804119278e-01  8.0436642338616260e-01  6.5481061263403906e-01  5.0686832094291834e-01  3.7097545856537201e-01  2.4320518450957404e-01  1.2041732071352100e-01  0.0000000000000000e+00  0.0000000000000000e+00  2.0297660847000532e-01  4.1367358804605647e-01  6.4132936732914181e-01  8.9904629787877366e-01  1.1793570911581910e+00  1.4084780598775091e+00  1.5625524393435724e+00  1.6355796489416934e+00  1.6273301299668543e+00  1.5563835836394135e+00  1.5171198899606608e+00  1.5190834315453079e+00  1.5492222575135086e+00  1.5955382483931078e+00  1.6437588448878504e+00  1.6777932471890247e+00  1.6861588576795781e+00  1.6564898312343428e+00  1.5727544159386890e+00  1.4555150407123294e+00  1.3382854169997369e+00  1.2223861057317738e+00  1.0948872095990065e+00  9.7124240589858735e-01  8.5949176438226760e-01  7.3527253134350312e-01  6.0129475584489489e-01  4.7098860265490372e-01  3.4686415965297701e-01  2.2813547779840285e-01  1.1313172087304720e-01  0.0000000000000000e+00  0.0000000000000000e+00  1.9897033735350877e-01  4.0635559405611638e-01  6.3240690413870371e-01  8.9196666479187436e-01  1.1801536030488182e+00  1.4075477659661344e+00  1.5520500385844327e+00  1.6139951797811325e+00  1.5931469070683035e+00  1.5097076416560609e+00  1.4588766284127219e+00  1.4526369613652106e+00  1.4796279203752809e+00  1.5315630150777320e+00  1.5990587111099224e+00  1.6598536191877786e+00  1.6898547528219516e+00  1.6836317297306771e+00  1.5901314396017145e+00  1.4274645120019334e+00  1.2774440975858703e+00  1.1429831500642673e+00  1.0152316548446485e+00  8.9435864670514420e-01  7.7968190488412981e-01  6.6382403409091195e-01  5.4619912156681627e-01  4.3055748574137109e-01  3.1855122264480401e-01  2.1012388247590003e-01  1.0436340921209528e-01  0.0000000000000000e+00  0.0000000000000000e+00  1.8731041091818165e-01  3.8192749284286331e-01  5.9239045780718524e-01  8.3028085975197041e-01  1.0993588363616797e+00  1.3185928287764141e+00  1.4537170018013934e+00  1.5050412654219900e+00  1.4806816762981598e+00  1.4067145032538979e+00  1.3615030800169563e+00  1.3583842880620818e+00  1.3906030692413214e+00  1.4577246989231287e+00  1.5523134038836603e+00  1.6494802188301827e+00  1.6919454355644705e+00  1.6720687275777328e+00  1.5650014790446547e+00  1.3772632183448335e+00  1.2056591785439807e+00  1.0609782943849007e+00  9.3232468326711448e-01  8.1445047515339408e-01  7.0379719268302277e-01  5.9646646117648472e-01  4.9102259313954633e-01  3.8798198664044509e-01  2.8775723974896611e-01  1.9016792719349807e-01  9.4558396942367048e-02  0.0000000000000000e+00  0.0000000000000000e+00  1.6905875929163625e-01  3.4311651755869127e-01  5.2720951428618457e-01  7.2587683680388071e-01  9