<?xml version="1.0"?>
<VTKFile type="UnstructuredGrid"  version="0.1"  >
<UnstructuredGrid>
<Piece  NumberOfPoints="1089" NumberOfCells="2048">
<Points>
<DataArray  type="Float64"  NumberOfComponents="3"  format="ascii">0 0 0  0.03125 0 0  0.0625 0 0  0.09375 0 0  0.125 0 0  0.15625 0 0  0.1875 0 0  0.21875 0 0  0.25 0 0  0.28125 0 0  0.3125 0 0  0.34375 0 0  0.375 0 0  0.40625 0 0  0.4375 0 0  0.46875 0 0  0.5 0 0  0.53125 0 0  0.5625 0 0  0.59375 0 0  0.625 0 0  0.65625 0 0  0.6875 0 0  0.71875 0 0  0.75 0 0  0.78125 0 0  0.8125 0 0  0.84375 0 0  0.875 0 0  0.90625 0 0  0.9375 0 0  0.96875 0 0  1 0 0  0 0.03125 0  0.03125 0.03125 0  0.0625 0.03125 0  0.09375 0.03125 0  0.125 0.03125 0  0.15625 0.03125 0  0.1875 0.03125 0  0.21875 0.03125 0  0.25 0.03125 0  0.28125 0.03125 0  0.3125 0.03125 0  0.34375 0.03125 0  0.375 0.03125 0  0.40625 0.03125 0  0.4375 0.03125 0  0.46875 0.03125 0  0.5 0.03125 0  0.53125 0.03125 0  0.5625 0.03125 0  0.59375 0.03125 0  0.625 0.03125 0  0.65625 0.03125 0  0.6875 0.03125 0  0.71875 0.03125 0  0.75 0.03125 0  0.78125 0.03125 0  0.8125 0.03125 0  0.84375 0.03125 0  0.875 0.03125 0  0.90625 0.03125 0  0.9375 0.03125 0  0.96875 0.03125 0  1 0.03125 0  0 0.0625 0  0.03125 0.0625 0  0.0625 0.0625 0  0.09375 0.0625 0  0.125 0.0625 0  0.15625 0.0625 0  0.1875 0.0625 0  0.21875 0.0625 0  0.25 0.0625 0  0.28125 0.0625 0  0.3125 0.0625 0  0.34375 0.0625 0  0.375 0.0625 0  0.40625 0.0625 0  0.4375 0.0625 0  0.46875 0.0625 0  0.5 0.0625 0  0.53125 0.0625 0  0.5625 0.0625 0  0.59375 0.0625 0  0.625 0.0625 0  0.65625 0.0625 0  0.6875 0.0625 0  0.71875 0.0625 0  0.75 0.0625 0  0.78125 0.0625 0  0.8125 0.0625 0  0.84375 0.0625 0  0.875 0.0625 0  0.90625 0.0625 0  0.9375 0.0625 0  0.96875 0.0625 0  1 0.0625 0  0 0.09375 0  0.03125 0.09375 0  0.0625 0.09375 0  0.09375 0.09375 0  0.125 0.09375 0  0.15625 0.09375 0  0.1875 0.09375 0  0.21875 0.09375 0  0.25 0.09375 0  0.28125 0.09375 0  0.3125 0.09375 0  0.34375 0.09375 0  0.375 0.09375 0  0.40625 0.09375 0  0.4375 0.09375 0  0.46875 0.09375 0  0.5 0.09375 0  0.53125 0.09375 0  0.5625 0.09375 0  0.59375 0.09375 0  0.625 0.09375 0  0.65625 0.09375 0  0.6875 0.09375 0  0.71875 0.09375 0  0.75 0.09375 0  0.78125 0.09375 0  0.8125 0.09375 0  0.84375 0.09375 0  0.875 0.09375 0  0.90625 0.09375 0  0.9375 0.09375 0  0.96875 0.09375 0  1 0.09375 0  0 0.125 0  0.03125 0.125 0  0.0625 0.125 0  0.09375 0.125 0  0.125 0.125 0  0.15625 0.125 0  0.1875 0.125 0  0.21875 0.125 0  0.25 0.125 0  0.28125 0.125 0  0.3125 0.125 0  0.34375 0.125 0  0.375 0.125 0  0.40625 0.125 0  0.4375 0.125 0  0.46875 0.125 0  0.5 0.125 0  0.53125 0.125 0  0.5625 0.125 0  0.59375 0.125 0  0.625 0.125 0  0.65625 0.125 0  0.6875 0.125 0  0.71875 0.125 0  0.75 0.125 0  0.78125 0.125 0  0.8125 0.125 0  0.84375 0.125 0  0.875 0.125 0  0.90625 0.125 0  0.9375 0.125 0  0.96875 0.125 0  1 0.125 0  0 0.15625 0  0.03125 0.15625 0  0.0625 0.15625 0  0.09375 0.15625 0  0.125 0.15625 0  0.15625 0.15625 0  0.1875 0.15625 0  0.21875 0.15625 0  0.25 0.15625 0  0.28125 0.15625 0  0.3125 0.15625 0  0.34375 0.15625 0  0.375 0.15625 0  0.40625 0.15625 0  0.4375 0.15625 0  0.46875 0.15625 0  0.5 0.15625 0  0.53125 0.15625 0  0.5625 0.15625 0  0.59375 0.15625 0  0.625 0.15625 0  0.65625 0.15625 0  0.6875 0.15625 0  0.71875 0.15625 0  0.75 0.15625 0  0.78125 0.15625 0  0.8125 0.15625 0  0.84375 0.15625 0  0.875 0.15625 0  0.90625 0.15625 0  0.9375 0.15625 0  0.96875 0.15625 0  1 0.15625 0  0 0.1875 0  0.03125 0.1875 0  0.0625 0.1875 0  0.09375 0.1875 0  0.125 0.1875 0  0.15625 0.1875 0  0.1875 0.1875 0  0.21875 0.1875 0  0.25 0.1875 0  0.28125 0.1875 0  0.3125 0.1875 0  0.34375 0.1875 0  0.375 0.1875 0  0.40625 0.1875 0  0.4375 0.1875 0  0.46875 0.1875 0  0.5 0.1875 0  0.53125 0.1875 0  0.5625 0.1875 0  0.59375 0.1875 0  0.625 0.1875 0  0.65625 0.1875 0  0.6875 0.1875 0  0.71875 0.1875 0  0.75 0.1875 0  0.78125 0.1875 0  0.8125 0.1875 0  0.84375 0.1875 0  0.875 0.1875 0  0.90625 0.1875 0  0.9375 0.1875 0  0.96875 0.1875 0  1 0.1875 0  0 0.21875 0  0.03125 0.21875 0  0.0625 0.21875 0  0.09375 0.21875 0  0.125 0.21875 0  0.15625 0.21875 0  0.1875 0.21875 0  0.21875 0.21875 0  0.25 0.21875 0  0.28125 0.21875 0  0.3125 0.21875 0  0.34375 0.21875 0  0.375 0.21875 0  0.40625 0.21875 0  0.4375 0.21875 0  0.46875 0.21875 0  0.5 0.21875 0  0.53125 0.21875 0  0.5625 0.21875 0  0.59375 0.21875 0  0.625 0.21875 0  0.65625 0.21875 0  0.6875 0.21875 0  0.71875 0.21875 0  0.75 0.21875 0  0.78125 0.21875 0  0.8125 0.21875 0  0.84375 0.21875 0  0.875 0.21875 0  0.90625 0.21875 0  0.9375 0.21875 0  0.96875 0.21875 0  1 0.21875 0  0 0.25 0  0.03125 0.25 0  0.0625 0.25 0  0.09375 0.25 0  0.125 0.25 0  0.15625 0.25 0  0.1875 0.25 0  0.21875 0.25 0  0.25 0.25 0  0.28125 0.25 0  0.3125 0.25 0  0.34375 0.25 0  0.375 0.25 0  0.40625 0.25 0  0.4375 0.25 0  0.46875 0.25 0  0.5 0.25 0  0.53125 0.25 0  0.5625 0.25 0  0.59375 0.25 0  0.625 0.25 0  0.65625 0.25 0  0.6875 0.25 0  0.71875 0.25 0  0.75 0.25 0  0.78125 0.25 0  0.8125 0.25 0  0.84375 0.25 0  0.875 0.25 0  0.90625 0.25 0  0.9375 0.25 0  0.96875 0.25 0  1 0.25 0  0 0.28125 0  0.03125 0.28125 0  0.0625 0.28125 0  0.09375 0.28125 0  0.125 0.28125 0  0.15625 0.28125 0  0.1875 0.28125 0  0.21875 0.28125 0  0.25 0.28125 0  0.28125 0.28125 0  0.3125 0.28125 0  0.34375 0.28125 0  0.375 0.28125 0  0.40625 0.28125 0  0.4375 0.28125 0  0.46875 0.28125 0  0.5 0.28125 0  0.53125 0.28125 0  0.5625 0.28125 0  0.59375 0.28125 0  0.625 0.28125 0  0.65625 0.28125 0  0.6875 0.28125 0  0.71875 0.28125 0  0.75 0.28125 0  0.78125 0.28125 0  0.8125 0.28125 0  0.84375 0.28125 0  0.875 0.28125 0  0.90625 0.28125 0  0.9375 0.28125 0  0.96875 0.28125 0  1 0.28125 0  0 0.3125 0  0.03125 0.3125 0  0.0625 0.3125 0  0.09375 0.3125 0  0.125 0.3125 0  0.15625 0.3125 0  0.1875 0.3125 0  0.21875 0.3125 0  0.25 0.3125 0  0.28125 0.3125 0  0.3125 0.3125 0  0.34375 0.3125 0  0.375 0.3125 0  0.40625 0.3125 0  0.4375 0.3125 0  0.46875 0.3125 0  0.5 0.3125 0  0.53125 0.3125 0  0.5625 0.3125 0  0.59375 0.3125 0  0.625 0.3125 0  0.65625 0.3125 0  0.6875 0.3125 0  0.71875 0.3125 0  0.75 0.3125 0  0.78125 0.3125 0  0.8125 0.3125 0  0.84375 0.3125 0  0.875 0.3125 0  0.90625 0.3125 0  0.9375 0.3125 0  0.96875 0.3125 0  1 0.3125 0  0 0.34375 0  0.03125 0.34375 0  0.0625 0.34375 0  0.09375 0.34375 0  0.125 0.34375 0  0.15625 0.34375 0  0.1875 0.34375 0  0.21875 0.34375 0  0.25 0.34375 0  0.28125 0.34375 0  0.3125 0.34375 0  0.34375 0.34375 0  0.375 0.34375 0  0.40625 0.34375 0  0.4375 0.34375 0  0.46875 0.34375 0  0.5 0.34375 0  0.53125 0.34375 0  0.5625 0.34375 0  0.59375 0.34375 0  0.625 0.34375 0  0.65625 0.34375 0  0.6875 0.34375 0  0.71875 0.34375 0  0.75 0.34375 0  0.78125 0.34375 0  0.8125 0.34375 0  0.84375 0.34375 0  0.875 0.34375 0  0.90625 0.34375 0  0.9375 0.34375 0  0.96875 0.34375 0  1 0.34375 0  0 0.375 0  0.03125 0.375 0  0.0625 0.375 0  0.09375 0.375 0  0.125 0.375 0  0.15625 0.375 0  0.1875 0.375 0  0.21875 0.375 0  0.25 0.375 0  0.28125 0.375 0  0.3125 0.375 0  0.34375 0.375 0  0.375 0.375 0  0.40625 0.375 0  0.4375 0.375 0  0.46875 0.375 0  0.5 0.375 0  0.53125 0.375 0  0.5625 0.375 0  0.59375 0.375 0  0.625 0.375 0  0.65625 0.375 0  0.6875 0.375 0  0.71875 0.375 0  0.75 0.375 0  0.78125 0.375 0  0.8125 0.375 0  0.84375 0.375 0  0.875 0.375 0  0.90625 0.375 0  0.9375 0.375 0  0.96875 0.375 0  1 0.375 0  0 0.40625 0  0.03125 0.40625 0  0.0625 0.40625 0  0.09375 0.40625 0  0.125 0.40625 0  0.15625 0.40625 0  0.1875 0.40625 0  0.21875 0.40625 0  0.25 0.40625 0  0.28125 0.40625 0  0.3125 0.40625 0  0.34375 0.40625 0  0.375 0.40625 0  0.40625 0.40625 0  0.4375 0.40625 0  0.46875 0.40625 0  0.5 0.40625 0  0.53125 0.40625 0  0.5625 0.40625 0  0.59375 0.40625 0  0.625 0.40625 0  0.65625 0.40625 0  0.6875 0.40625 0  0.71875 0.40625 0  0.75 0.40625 0  0.78125 0.40625 0  0.8125 0.40625 0  0.84375 0.40625 0  0.875 0.40625 0  0.90625 0.40625 0  0.9375 0.40625 0  0.96875 0.40625 0  1 0.40625 0  0 0.4375 0  0.03125 0.4375 0  0.0625 0.4375 0  0.09375 0.4375 0  0.125 0.4375 0  0.15625 0.4375 0  0.1875 0.4375 0  0.21875 0.4375 0  0.25 0.4375 0  0.28125 0.4375 0  0.3125 0.4375 0  0.34375 0.4375 0  0.375 0.4375 0  0.40625 0.4375 0  0.4375 0.4375 0  0.46875 0.4375 0  0.5 0.4375 0  0.53125 0.4375 0  0.5625 0.4375 0  0.59375 0.4375 0  0.625 0.4375 0  0.65625 0.4375 0  0.6875 0.4375 0  0.71875 0.4375 0  0.75 0.4375 0  0.78125 0.4375 0  0.8125 0.4375 0  0.84375 0.4375 0  0.875 0.4375 0  0.90625 0.4375 0  0.9375 0.4375 0  0.96875 0.4375 0  1 0.4375 0  0 0.46875 0  0.03125 0.46875 0  0.0625 0.46875 0  0.09375 0.46875 0  0.125 0.46875 0  0.15625 0.46875 0  0.1875 0.46875 0  0.21875 0.46875 0  0.25 0.46875 0  0.28125 0.46875 0  0.3125 0.46875 0  0.34375 0.46875 0  0.375 0.46875 0  0.40625 0.46875 0  0.4375 0.46875 0  0.46875 0.46875 0  0.5 0.46875 0  0.53125 0.46875 0  0.5625 0.46875 0  0.59375 0.46875 0  0.625 0.46875 0  0.65625 0.46875 0  0.6875 0.46875 0  0.71875 0.46875 0  0.75 0.46875 0  0.78125 0.46875 0  0.8125 0.46875 0  0.84375 0.46875 0  0.875 0.46875 0  0.90625 0.46875 0  0.9375 0.46875 0  0.96875 0.46875 0  1 0.46875 0  0 0.5 0  0.03125 0.5 0  0.0625 0.5 0  0.09375 0.5 0  0.125 0.5 0  0.15625 0.5 0  0.1875 0.5 0  0.21875 0.5 0  0.25 0.5 0  0.28125 0.5 0  0.3125 0.5 0  0.34375 0.5 0  0.375 0.5 0  0.40625 0.5 0  0.4375 0.5 0  0.46875 0.5 0  0.5 0.5 0  0.53125 0.5 0  0.5625 0.5 0  0.59375 0.5 0  0.625 0.5 0  0.65625 0.5 0  0.6875 0.5 0  0.71875 0.5 0  0.75 0.5 0  0.78125 0.5 0  0.8125 0.5 0  0.84375 0.5 0  0.875 0.5 0  0.90625 0.5 0  0.9375 0.5 0  0.96875 0.5 0  1 0.5 0  0 0.53125 0  0.03125 0.53125 0  0.0625 0.53125 0  0.09375 0.53125 0  0.125 0.53125 0  0.15625 0.53125 0  0.1875 0.53125 0  0.21875 0.53125 0  0.25 0.53125 0  0.28125 0.53125 0  0.3125 0.53125 0  0.34375 0.53125 0  0.375 0.53125 0  0.40625 0.53125 0  0.4375 0.53125 0  0.46875 0.53125 0  0.5 0.53125 0  0.53125 0.53125 0  0.5625 0.53125 0  0.59375 0.53125 0  0.625 0.53125 0  0.65625 0.53125 0  0.6875 0.53125 0  0.71875 0.53125 0  0.75 0.53125 0  0.78125 0.531
[...]
<PointData  Scalars="u"> 
<DataArray  type="Float64"  Name="u"  format="ascii">0.0000000000000000e+00  0.0000000000000000e+00  0.0000000000000000e+00  0.0000000000000000e+00  0.0000000000000000e+00  0.0000000000000000e+00  0.0000000000000000e+00  0.0000000000000000e+00  0.0000000000000000e+00  0.0000000000000000e+00  0.0000000000000000e+00  0.0000000000000000e+00  0.0000000000000000e+00  0.0000000000000000e+00  0.0000000000000000e+00  0.0000000000000000e+00  0.0000000000000000e+00  0.0000000000000000e+00  0.0000000000000000e+00  0.0000000000000000e+00  0.0000000000000000e+00  0.0000000000000000e+00  0.0000000000000000e+00  0.0000000000000000e+00  0.0000000000000000e+00  0.0000000000000000e+00  0.0000000000000000e+00  0.0000000000000000e+00  0.0000000000000000e+00  0.0000000000000000e+00  0.0000000000000000e+00  0.0000000000000000e+00  0.0000000000000000e+00  0.0000000000000000e+00  1.5474023305814934e-02  3.0895768859253891e-02  4.6165223187774843e-02  6.1101601488314457e-02  7.5417444030281708e-02  8.8719372138468436e-02  1.0054951207471900e-01  1.1047152914590307e-01  1.1818804389270862e-01  1.2366845741478606e-01  1.2722473014819413e-01  1.2943414982103557e-01  1.3095077984445858e-01  1.3235154600461937e-01  1.3405951184260745e-01  1.3631643262643209e-01  1.3916613420270568e-01  1.4242609444436005e-01  1.4564811707360464e-01  1.4809582659753306e-01  1.4878959447913417e-01  1.4666570161018591e-01  1.4085227195326228e-01  1.3104398712812929e-01  1.1776012099257185e-01  1.0208953950755223e-01  8.5151645111312735e-02  6.7782289094501486e-02  5.0470160078670230e-02  3.3417453201825098e-02  1.6630504963527606e-02  0.0000000000000000e+00  0.0000000000000000e+00  3.1047240089962298e-02  6.2030414867107003e-02  9.2788781632817244e-02  1.2298615422676869e-01  1.5204627730392814e-01  1.7914036464553748e-01  2.0326606964673311e-01  2.2343286814742058e-01  2.3891795142947336e-01  2.4958439123297968e-01  2.5613365693469303e-01  2.5990938078656922e-01  2.6237417424694842e-01  2.6475913138653284e-01  2.6793819791320739e-01  2.7241167089313639e-01  2.7829554034824422e-01  2.8526374517837988e-01  2.9244180398477210e-01  2.9831125280863063e-01  3.0075281178825719e-01  2.9736235354913249e-01  2.8602096616272737e-01  2.6586000353022693e-01  2.3817352649543896e-01  2.0567916976456851e-01  1.7093078160132114e-01  1.3566456072436595e-01  1.0079793632511609e-01  6.6645203679943518e-02  3.3139217212294687e-02  0.0000000000000000e+00  0.0000000000000000e+00  4.6771455382569556e-02  9.3556122593907970e-02  1.4021705216718863e-01  1.8632625738568345e-01  2.3102998824360318e-01  2.7298384398758357e-01  3.1045443836563574e-01  3.4164021290084523e-01  3.6507423680072287e-01  3.8026077580883721e-01  3.8848766317355271e-01  3.9238909443579362e-01  3.9458790961191115e-01  3.9709608275644098e-01  4.0125573480834892e-01  4.0783674768603945e-01  4.1708492015799187e-01  4.2863639568682377e-01  4.4128482449576123e-01  4.5268491564428143e-01  4.5925999401444700e-01  4.5669383926004259e-01  4.4065442771282676e-01  4.0879730274709203e-01  3.6393146960818984e-01  3.1199244662337183e-01  2.5762436596435556e-01  2.0346670228069430e-01  1.5065144662673355e-01  9.9384377928821765e-02  4.9357017368127740e-02  0.0000000000000000e+00  0.0000000000000000e+00  6.2608994804275411e-02  1.2545076139563688e-01  1.8855828786520962e-01  2.5154500235865085e-01  3.1334279510558405e-01  3.7198806867756506e-01  4.2469370036941217e-01  4.6844273653191038e-01  5.0038663912171499e-01  5.1885850005384460e-01  5.2617070135006072e-01  5.2760738818892194e-01  5.2755302471133836e-01  5.2886114747915325e-01  5.3324567899073738e-01  5.4169855838370162e-01  5.5468088029755058e-01  5.7202296081378157e-01  5.9248135166256133e-01  6.1297398947105963e-01  6.2797217709887687e-01  6.3052121963980023e-01  6.1207084910350384e-01  5.6563475297779608e-01  4.9756551248408581e-01  4.2143730998966489e-01  3.4470096590906102e-01  2.7040482080129952e-01  1.9931631178642542e-01  1.3112229577925688e-01  6.5020648873227962e-02  0.0000000000000000e+00  0.0000000000000000e+00  7.8379187319472451e-02  1.5740248370957183e-01  2.3749738081626209e-01  3.1857874421628329e-01  3.9957570521895275e-01  4.7783084536777859e-01  5.4890691592435603e-01  6.0817101806217178e-01  6.5037835278443612e-01  6.6989307844654888e-01  6.7106107605802445e-01  6.6569035275042110e-01  6.6056095058886821e-01  6.5897901429493033e-01  6.6261433723313112e-01  6.7249066456632700e-01  6.8938429420371938e-01  7.1376165536696201e-01  7.4510489804566815e-01  7.8019998658974921e-01  8.1054165934200995e-01  8.2670248575660499e-01  8.1275169999515262e-01  7.4528582905588625e-01  6.4032087541716143e-01  5.3241899753305477e-01  4.3012129189764903e-01  3.3476711432588285e-01  2.4556180113164014e-01  1.6108361057093371e-01  7.9758311647070743e-02  0.0000000000000000e+00  0.0000000000000000e+00  9.3708448136302663e-02  1.8868099515643288e-01  2.8603996454565422e-01  3.8647243423584771e-01  4.8950265987595654e-01  5.9196919996619879e-01  6.8619685758874882e-01  7.6634986349769252e-01  8.2456418530623510e-01  8.4086194558593752e-01  8.2414407230753173e-01  8.0523602366226965e-01  7.9176300951394840e-01  7.8564926809985525e-01  7.8753228457346214e-01  7.9807014115524966e-01  8.1841683359118589e-01  8.5034819596836764e-01  8.9578137224199983e-01  9.5396138976225076e-01  1.0090322547780941e+00  1.0394350972555511e+00  1.0380589182974482e+00  9.4865958066142742e-01  7.8732394250378313e-01  6.3894083959830150e-01  5.0956302219791105e-01  3.9375777169113657e-01  2.8766465318141082e-01  1.8828091563718502e-01  9.3120797864253521e-02  0.0000000000000000e+00  0.0000000000000000e+00  1.0801286428266821e-01  2.1804384500581506e-01  3.3220741471071713e-01  4.5268782237709571e-01  5.8112385467774341e-01  7.1567372764925097e-01  8.3906635032099885e-01  9.3289194348828464e-01  1.0119847658148489e+00  1.0315009290787793e+00  9.8138364629764141e-01  9.4137063378765806e-01  9.1767242219175738e-01  9.0642075911728215e-01  9.0591591253862336e-01  9.1597629546739501e-01  9.3800786399296865e-01  9.7557530725636865e-01  1.0358415077122254e+00  1.1177001178712944e+00  1.2037747161032948e+00  1.2402177668920706e+00  1.2161406648459325e+00  1.1038099988845478e+00  9.0768215790323126e-01  7.2780216585517810e-01  5.7656496961023185e-01  4.4394817810023068e-01  3.2374381464320950e-01  2.1171114747085798e-01  1.0466986843655159e-01  0.0000000000000000e+00  0.0000000000000000e+00  1.2057221666912597e-01  2.4381281522760648e-01  3.7285833745693975e-01  5.1200264168846210e-01  6.6793024798569234e-01  8.3682776093654754e-01  9.9276624776507882e-01  1.0856088071942409e+00  1.1391640216462264e+00  1.1720723152393016e+00  1.1155489402781757e+00  1.0635200298224969e+00  1.0335123985791395e+00  1.0188568271942151e+00  1.0161693399555249e+00  1.0243606576285957e+00  1.0445177694372516e+00  1.0805537908658864e+00  1.1415074144176891e+00  1.2339168785168610e+00  1.3133751997474672e+00  1.3514211293564287e+00  1.3170131110210210e+00  1.1923620810744899e+00  9.8307361616649558e-01  7.8954565177861558e-01  6.2623029866144764e-01  4.8275929715049731e-01  3.5242821592059542e-01  2.3066762717975411e-01  1.1410428881175132e-01  0.0000000000000000e+00  0.0000000000000000e+00  1.3076720762508287e-01  2.6437789568863151e-01  4.0430426069164976e-01  5.5571349909382883e-01  7.2798554086833012e-01  9.2694698855785751e-01  1.0896267860655500e+00  1.1731138451165253e+00  1.2283626299778152e+00  1.2674067129263265e+00  1.2172939425304308e+00  1.1662650056631034e+00  1.1366703193566310e+00  1.1220322559886462e+00  1.1182757417104243e+00  1.1235235515834312e+00  1.1378941106735099e+00  1.1633486397559072e+00  1.2031905469592219e+00  1.2591039281834624e+00  1.3146311899496548e+00  1.3547463462871452e+00  1.3276509954728288e+00  1.2153569338475192e+00  1.0141650363660357e+00  8.2275747846655334e-01  6.5746642099437780e-01  5.0956956926389485e-01  3.7339905384432831e-01  2.4499820576286249e-01  1.2136364179288725e-01  0.0000000000000000e+00  0.0000000000000000e+00  1.3845053125511653e-01  2.7928422593015356e-01  4.2524465263880795e-01  5.7985150903654070e-01  7.4770717263095410e-01  9.3334273539574486e-01  1.1154614182589746e+00  1.2302696049513668e+00  1.2905992253135037e+00  1.3327063068590699e+00  1.2922849408257133e+00  1.2504585478696526e+00  1.2278147944117059e+00  1.2173108315527477e+00  1.2143876192079739e+00  1.2165833487593574e+00  1.2232009467306577e+00  1.2347495775293762e+00  1.2517567915054895e+00  1.2723363300277657e+00  1.2884009117076178e+00  1.2908530569759002e+00  1.2584272697570520e+00  1.1772210254730462e+00  1.0070814445496270e+00  8.3166417506708457e-01  6.7283417058928252e-01  5.2588245903009234e-01  3.8752539986278889e-01  2.5517987052306890e-01  1.2665947170113262e-01  0.0000000000000000e+00  0.0000000000000000e+00  1.4410711121817010e-01  2.8977011302297012e-01  4.3858936463161124e-01  5.9212712088473296e-01  7.5135776008218047e-01  9.1479805848362428e-01  1.0737827999847367e+00  1.2073229672732313e+00  1.3128558029323787e+00  1.3615585950434259e+00  1.3412418065441123e+00  1.3185957721922110e+00  1.3100153835114492e+00  1.3082515327257245e+00  1.3086498272083742e+00  1.3084973013475159e+00  1.3068400758899583e+00  1.3039225717731688e+00  1.2999271296963459e+00  1.2931814538597459e+00  1.2787734777798316e+00  1.2494524202156418e+00  1.1949505814284278e+00  1.1085936458415959e+00  9.7700543641448490e-01  8.2590134176891961e-01  6.7794049108974141e-01  5.3490413287891658e-01  3.9662229367886281e-01  2.6219232556844452e-01  1.3042146818420353e-01  0.0000000000000000e+00  0.0000000000000000e+00  1.4858596775356261e-01  2.9784951620504846e-01  4.4833063230305675e-01  6.0018016010572561e-01  7.5260966390399275e-01  9.0284040837349111e-01  1.0447392849778412e+00  1.1693653894197855e+00  1.2729735256015611e+00  1.3406450162797554e+00  1.3652957828123422e+00  1.3760152709312614e+00  1.3888281786371872e+00  1.4005127928136527e+00  1.4069740615854680e+00  1.4054308291418689e+00  1.3952334671595166e+00  1.3776219549782975e+00  1.3542252543026332e+00  1.3249684607401984e+00  1.2872109594366219e+00  1.2362237093231865e+00  1.1661239428242334e+00  1.0725254994909146e+00  9.5350753274049604e-01  8.1899913358268039e-01  6.7981320492029218e-01  5.4053558468830987e-01  4.0289609196234866e-01  2.6723333869013033e-01  1.3317743889869552e-01  0.0000000000000000e+00  0.0000000000000000e+00  1.5278484246370111e-01  3.0549983094257438e-01  4.5787558873939632e-01  6.0919760861364169e-01  7.5796102322203329e-01  9.0145040006765698e-01  1.0355124875789288e+00  1.1552455951552179e+00  1.2568524530196064e+00  1.3355428737073862e+00  1.3914689674804261e+00  1.4348906422228556e+00  1.4724122364023338e+00  1.5017026944165137e+00  1.5170395728039059e+00  1.5147561120540844e+00  1.4947492988124991e+00  1.4607559479657979e+00  1.4179449068448025e+00  1.3687001997674131e+00  1.3121742234296363e+00  1.2452233695214250e+00  1.1636982461149774e+00  1.0645323488474185e+00  9.4787799625180591e-01  8.1884896818404840e-01  6.8352887691517294e-01  5.4594275145817661e-01  4.0825992934285626e-01  2.7138101561959183e-01  1.3541157563109557e-01  0.0000000000000000e+00  0.0000000000000000e+00  1.5746887877555488e-01  3.1431303717744385e-01  4.6969811071722178e-01  6.2238508453532948e-01  7.7056815143560120e-01  9.1181745746638543e-01  1.0432652420205526e+00  1.1621916687870886e+00  1.2668413162445884e+00  1.3566153124041205e+00  1.4337361255435086e+00  1.5033984585855962e+00  1.5680670614409005e+00  1.6207574152097270e+00  1.6486718292233429e+00  1.6457494880667372e+00  1.6121585862155701e+00  1.5565422340299275e+00  1.4918279050675864e+00  1.4233066150675246e+00  1.3509884772915934e+00  1.2720247856147047e+00  1.1819106334188068e+00  1.0767640155240867e+00  9.5707021601535713e-01  8.2712346208401799e-01  6.9131155647911791e-01  5.5290080557530086e-01  4.1391737166381043e-01  2.7535355914645598e-01  1.3745515053057253e-01  0.0000000000000000e+00  0.0000000000000000e+00  1.6320942155197385e-01  3.2544167197913426e-01  4.8549058228077913e-01  6.4175008792828170e-01  7.9216587956536044e-01  9.3440275031527009e-01  1.0662881278721215e+00  1.1864637752792901e+00  1.2950212789274040e+00  1.3938867760252645e+00  1.4872017049126878e+00  1.5807976575627676e+00  1.6797183016344708e+00  1.7686874126544989e+00  1.8152794553929676e+00  1.8115461153253452e+00  1.7556817686192647e+00  1.6654293211124340e+00  1.5733993860683542e+00  1.4854373522134334e+00  1.3999906461575575e+00  1.3133035393506944e+00  1.2182369291220114e+00  1.1063500180841421e+00  9.7902186497657928e-01  8.4344629360700896e-01  7.0353485182561248e-01  5.6191824421691017e-01  4.2027713557531254e-01  2.7941144861986861e-01  1.3943116368208622e-01  0.0000000000000000e+00  0.0000000000000000e+00  1.7037445310527352e-01  3.3964079446194156e-01  5.0638959043586362e-01  6.6869107079444390e-01  8.2407006829918095e-01  9.6983773041047172e-01  1.1038608175035129e+00  1.2255040134194544e+00  1.3363191670913632e+00  1.4403757437458338e+00  1.5442589981888102e+00  1.6569149311393119e+00  1.7902613199052237e+00  1.9327901950590780e+00  2.0060516285142400e+00  2.0033070389030692e+00  1.9226067915786369e+00  1.7802440426113806e+00  1.6549165442667588e+00  1.5488961708321993e+00  1.4538756957580576e+00  1.3663740159374129e+00  1.2745368887810276e+00  1.1542443266409164e+00  1.0117767660779402e+00  8.6632839031206355e-01  7.1933727945812520e-01  5.7247189936108422e-01  4.2700183304075440e-01  2.8334688724143170e-01  1.4123998260719781e-01  0.0000000000000000e+00  0.0000000000000000e+00  1.7910949605179888e-01  3.5727359875628961e-01  5.3309573449722636e-01  7.0434210707080802e-01  8.6777963156348537e-01  1.0195915568172089e+00  1.1567375837408940e+00  1.2786132808394115e+00  1.3878989438505813e+00  1.4908089869081722e+00  1.5965277510319114e+00  1.7165041284038409e+00  1.8654554254597635e+00  2.0334482276953243e+00  2.1249299226013632e+00  2.1251163723282649e+00  2.0336954897549595e+00  1.8670584982941840e+00  1.7212466136563740e+00  1.6052912919021234e+00  1.5039639125242050e+00  1.4120245814475179e+00  1.3320322360952741e+00  1.2119919895764053e+00  1.0501053673845582e+00  8.9300585872476712e-01  7.3691048466141618e-01  5.8315879072102883e-01  4.3306373175342866e-01  2.8650498528622742e-01  1.4256777751527730e-01  0.0000000000000000e+00  0.0000000000000000e+00  1.8926511629931445e-01  3.7819107952827763e-01  5.6577675253611648e-01  7.4964055535019147e-01  9.2536997589876713e-01  1.0866547979568189e+00  1.2278839335697158e+00  1.3476323738113294e+00  1.4494587290729759e+00  1.5422872299603845e+00  1.6386077366386529e+00  1.7513681764781812e+00  1.8955323954021557e+00  2.0627646296683606e+00  2.1568301587571770e+00  2.1602513804277792e+00  2.0721226012722220e+00  1.9069311309182468e+00  1.7619137334967698e+00  1.6510580585110821e+00  1.5484390958804688e+00  1.4340159797361547e+00  1.3261763035940504e+00  1.2078831596296640e+00  1.0710258009445162e+00  9.2094714616873163e-01  7.5404724007294111e-01  5.9172470262172239e-01  4.3674610493921490e-01  2.8781489558260670e-01  1.4291345594815427e-01  0.0000000000000000e+00  0.0000000000000000e+00  2.0024631591961398e-01  4.0141434956668909e-01  6.0361274588686620e-01  8.0495631230356712e-01  9.9971322629623793e-01  1.1764766599876439e+00  1.3235728649141152e+00  1.4379560727086420e+00  1.5236810801179628e+00  1.5941836941113767e+00  1.6683690643448357e+00  1.7591271419642993e+00  1.8765121817251122e+00  2.0174401495057919e+00  2.1011459489831537e+00  2.1086985263108655e+00  2.0397767422498072e+00  1.9005516727274845e+00  1.7726465677245478e+00  1.6773808161020132e+00  1.5932796885987877e+00  1.4529601363571105e+00  1.3187901797122330e+00  1.1948118540945529e+00  1.0773113903719376e+00  9.5274048195751782e-01  7.6850984885532780e-01  5.9447755545032743e-01  4.3553334289391060e-01  2.8586500453219543e-01  1.4165688471187862e-01  0.0000000000000000e+00  0.0000000000000000e+00  2.1080025269570093e-01  4.2458954115517999e-01  6.4376221454477878e-01  8.6877545441565041e-01  1.0943988695948956e+00  1.2987133441974823e+00  1.4550816179780153e+00  1.5603616508414397e+00  1.6168244714949731e+00  1.6463322836185033e+00  1.6856938234584395e+00  1.7445635226518190e+00  1.8231524715366139e+00  1.9119919324928494e+00  1.9738449340739237e+00  1.9858402950187666e+00  1.9451226257598588e+00  1.8567642106132347e+00  1.7549567811482143e+00  1.6660841496510879e+00  1.5914755937659619e+00  1.4540359856800062e+00  1.3044394893328748e+00  1.1781794701133645e+00  1.0627855298711901e+00  9.3979185937690057e-01  7.5942066879443804e-01  5.8365414772889768e-01  4.2618175364921307e-01  2.7921440577566070e-01  1.3822973872532818e-01  0.0000000000000000e+00  0.0000000000000000e+00  2.1886285310552214e-01  4.4337134155672497e-01  6.7954233430355071e-01  9.3391858281239926e-01  1.1975288330709075e+00  1.4411966485724497e+00  1.6103352814571215e+00  1.7045504264584179e+00  1.7253870293791314e+00  1.6925483979411686e+00  1.6876187350989633e+00  1.7145440730820944e+00  1.7639282679314223e+00  1.8227669561907034e+00  1.8704446672421531e+00  1.8897281849210750e+00  1.8720783065465707e+00  1.8155132620972161e+00  1.7284918605584032e+00  1.6292467265087138e+00  1.5343476607763964e+00  1.4250226964441148e+00  1.2699209903226814e+00  1.1383056825279600e+00  1.0279232447836528e+00  8.7976983757545735e-01  7.1709579803386081e-01  5.5601289444261437e-01  4.0743479963514551e-01  2.6732219039648702e-01  1.3241931472436869e-01  0.0000000000000000e+00  0.0000000000000000e+00  2.2177417048756479e-01  4.5147559614409477e-01  6.9858239954004098e-01  9.7652062080600577e-01  1.2772595330441971e+00  1.5238555787640116e+00  1.6912735929509430e+00  1.7731773388295331e+00  1.7694028296255981e+00  1.6994824381281197e+00  1.6617209099784325e+00  1.6662385076809578e+00  1.6995330314936301e+00  1.7490636306597207e+00  1.7998364769931718e+00  1.8349378801275746e+00  1.8422771366683881e+00  1.8089348906802118e+00  1.7183076399484805e+00  1.5919201569187340e+00  1.4647990135280311e+00  1.3385030296812663e+00  1.1997547284972139e+00  1.0647327595046352e+00  9.4187236822555165e-01  8.0591521789829623e-01  6.5971822015139903e-01  5.1728989141546355e-01  3.8129168198244928e-01  2.5093434677132770e-01  1.2448376759508550e-01  0.0000000000000000e+00  0.0000000000000000e+00  2.1724094905934022e-01  4.4313806095297048e-01  6.8822591001148559e-01  9.6774162444692802e-01  1.2763363863077417e+00  1.5208134715662176e+00  1.6779503298317544e+00  1.7479912362742511e+00  1.7307757866540774e+00  1.6475356838081900e+00  1.5974460312500462e+00  1.5931847457478572e+00  1.6230306498607099e+00  1.6783177292930904e+00  1.7491345945013035e+00  1.8121371218316096e+00  1.8420943427369350e+00  1.8332370797008153e+00  1.7325585163665895e+00  1.5590390746073768e+00  1.3979051575648165e+00  1.2524218932590465e+00  1.1135678350321507e+00  9.8164179044554956e-01  8.5601755608761543e-01  7.2907982558043560e-01  6.0025793625872437e-01  4.7348918342048069e-01  3.5052375578976203e-01  2.3131839899705786e-01  1.1492241296554701e-01  0.0000000000000000e+00  0.0000000000000000e+00  2.0451323043382294e-01  4.1653316308174532e-01  6.4481760791053233e-01  9.0122666293252163e-01  1.1894059953722471e+00  1.4248877521448524e+00  1.5718205142032471e+00  1.6304269486753413e+00  1.6092251025660611e+00  1.5355414436062906e+00  1.4910556751897115e+00  1.4898516710204353e+00  1.5250068327972210e+00  1.5960282351009716e+00  1.6950336653233133e+00  1.7959295577415406e+00  1.8389888941857244e+00  1.8161144257028510e+00  1.7014884091619387e+00  1.5020598611643710e+00  1.3186553460173880e+00  1.1627538062418215e+00  1.0232240503465178e+00  8.9473516363346250e-01  7.7366714645378465e-01  6.5601631945322725e-01  5.4032311504252473e-01  4.2715079061656591e-01  3.1694650245608486e-01  2.0952825928691510e-01  1.0420703760725744e-01  0.0000000000000000e+00  0.0000000000000000e+00  1.8470980720743102e-01  3.7452747515718204e-01  5.7457238707334202e-01  7.8940287852440072e-01  1