<?xml version="1.0"?>
<VTKFile type="UnstructuredGrid"  version="0.1"  >
<UnstructuredGrid>
<Piece  NumberOfPoints="1089" NumberOfCells="2048">
<Points>
<DataArray  type="Float64"  NumberOfComponents="3"  format="ascii">0 0 0  0.03125 0 0  0.0625 0 0  0.09375 0 0  0.125 0 0  0.15625 0 0  0.1875 0 0  0.21875 0 0  0.25 0 0  0.28125 0 0  0.3125 0 0  0.34375 0 0  0.375 0 0  0.40625 0 0  0.4375 0 0  0.46875 0 0  0.5 0 0  0.53125 0 0  0.5625 0 0  0.59375 0 0  0.625 0 0  0.65625 0 0  0.6875 0 0  0.71875 0 0  0.75 0 0  0.78125 0 0  0.8125 0 0  0.84375 0 0  0.875 0 0  0.90625 0 0  0.9375 0 0  0.96875 0 0  1 0 0  0 0.03125 0  0.03125 0.03125 0  0.0625 0.03125 0  0.09375 0.03125 0  0.125 0.03125 0  0.15625 0.03125 0  0.1875 0.03125 0  0.21875 0.03125 0  0.25 0.03125 0  0.28125 0.03125 0  0.3125 0.03125 0  0.34375 0.03125 0  0.375 0.03125 0  0.40625 0.03125 0  0.4375 0.03125 0  0.46875 0.03125 0  0.5 0.03125 0  0.53125 0.03125 0  0.5625 0.03125 0  0.59375 0.03125 0  0.625 0.03125 0  0.65625 0.03125 0  0.6875 0.03125 0  0.71875 0.03125 0  0.75 0.03125 0  0.78125 0.03125 0  0.8125 0.03125 0  0.84375 0.03125 0  0.875 0.03125 0  0.90625 0.03125 0  0.9375 0.03125 0  0.96875 0.03125 0  1 0.03125 0  0 0.0625 0  0.03125 0.0625 0  0.0625 0.0625 0  0.09375 0.0625 0  0.125 0.0625 0  0.15625 0.0625 0  0.1875 0.0625 0  0.21875 0.0625 0  0.25 0.0625 0  0.28125 0.0625 0  0.3125 0.0625 0  0.34375 0.0625 0  0.375 0.0625 0  0.40625 0.0625 0  0.4375 0.0625 0  0.46875 0.0625 0  0.5 0.0625 0  0.53125 0.0625 0  0.5625 0.0625 0  0.59375 0.0625 0  0.625 0.0625 0  0.65625 0.0625 0  0.6875 0.0625 0  0.71875 0.0625 0  0.75 0.0625 0  0.78125 0.0625 0  0.8125 0.0625 0  0.84375 0.0625 0  0.875 0.0625 0  0.90625 0.0625 0  0.9375 0.0625 0  0.96875 0.0625 0  1 0.0625 0  0 0.09375 0  0.03125 0.09375 0  0.0625 0.09375 0  0.09375 0.09375 0  0.125 0.09375 0  0.15625 0.09375 0  0.1875 0.09375 0  0.21875 0.09375 0  0.25 0.09375 0  0.28125 0.09375 0  0.3125 0.09375 0  0.34375 0.09375 0  0.375 0.09375 0  0.40625 0.09375 0  0.4375 0.09375 0  0.46875 0.09375 0  0.5 0.09375 0  0.53125 0.09375 0  0.5625 0.09375 0  0.59375 0.09375 0  0.625 0.09375 0  0.65625 0.09375 0  0.6875 0.09375 0  0.71875 0.09375 0  0.75 0.09375 0  0.78125 0.09375 0  0.8125 0.09375 0  0.84375 0.09375 0  0.875 0.09375 0  0.90625 0.09375 0  0.9375 0.09375 0  0.96875 0.09375 0  1 0.09375 0  0 0.125 0  0.03125 0.125 0  0.0625 0.125 0  0.09375 0.125 0  0.125 0.125 0  0.15625 0.125 0  0.1875 0.125 0  0.21875 0.125 0  0.25 0.125 0  0.28125 0.125 0  0.3125 0.125 0  0.34375 0.125 0  0.375 0.125 0  0.40625 0.125 0  0.4375 0.125 0  0.46875 0.125 0  0.5 0.125 0  0.53125 0.125 0  0.5625 0.125 0  0.59375 0.125 0  0.625 0.125 0  0.65625 0.125 0  0.6875 0.125 0  0.71875 0.125 0  0.75 0.125 0  0.78125 0.125 0  0.8125 0.125 0  0.84375 0.125 0  0.875 0.125 0  0.90625 0.125 0  0.9375 0.125 0  0.96875 0.125 0  1 0.125 0  0 0.15625 0  0.03125 0.15625 0  0.0625 0.15625 0  0.09375 0.15625 0  0.125 0.15625 0  0.15625 0.15625 0  0.1875 0.15625 0  0.21875 0.15625 0  0.25 0.15625 0  0.28125 0.15625 0  0.3125 0.15625 0  0.34375 0.15625 0  0.375 0.15625 0  0.40625 0.15625 0  0.4375 0.15625 0  0.46875 0.15625 0  0.5 0.15625 0  0.53125 0.15625 0  0.5625 0.15625 0  0.59375 0.15625 0  0.625 0.15625 0  0.65625 0.15625 0  0.6875 0.15625 0  0.71875 0.15625 0  0.75 0.15625 0  0.78125 0.15625 0  0.8125 0.15625 0  0.84375 0.15625 0  0.875 0.15625 0  0.90625 0.15625 0  0.9375 0.15625 0  0.96875 0.15625 0  1 0.15625 0  0 0.1875 0  0.03125 0.1875 0  0.0625 0.1875 0  0.09375 0.1875 0  0.125 0.1875 0  0.15625 0.1875 0  0.1875 0.1875 0  0.21875 0.1875 0  0.25 0.1875 0  0.28125 0.1875 0  0.3125 0.1875 0  0.34375 0.1875 0  0.375 0.1875 0  0.40625 0.1875 0  0.4375 0.1875 0  0.46875 0.1875 0  0.5 0.1875 0  0.53125 0.1875 0  0.5625 0.1875 0  0.59375 0.1875 0  0.625 0.1875 0  0.65625 0.1875 0  0.6875 0.1875 0  0.71875 0.1875 0  0.75 0.1875 0  0.78125 0.1875 0  0.8125 0.1875 0  0.84375 0.1875 0  0.875 0.1875 0  0.90625 0.1875 0  0.9375 0.1875 0  0.96875 0.1875 0  1 0.1875 0  0 0.21875 0  0.03125 0.21875 0  0.0625 0.21875 0  0.09375 0.21875 0  0.125 0.21875 0  0.15625 0.21875 0  0.1875 0.21875 0  0.21875 0.21875 0  0.25 0.21875 0  0.28125 0.21875 0  0.3125 0.21875 0  0.34375 0.21875 0  0.375 0.21875 0  0.40625 0.21875 0  0.4375 0.21875 0  0.46875 0.21875 0  0.5 0.21875 0  0.53125 0.21875 0  0.5625 0.21875 0  0.59375 0.21875 0  0.625 0.21875 0  0.65625 0.21875 0  0.6875 0.21875 0  0.71875 0.21875 0  0.75 0.21875 0  0.78125 0.21875 0  0.8125 0.21875 0  0.84375 0.21875 0  0.875 0.21875 0  0.90625 0.21875 0  0.9375 0.21875 0  0.96875 0.21875 0  1 0.21875 0  0 0.25 0  0.03125 0.25 0  0.0625 0.25 0  0.09375 0.25 0  0.125 0.25 0  0.15625 0.25 0  0.1875 0.25 0  0.21875 0.25 0  0.25 0.25 0  0.28125 0.25 0  0.3125 0.25 0  0.34375 0.25 0  0.375 0.25 0  0.40625 0.25 0  0.4375 0.25 0  0.46875 0.25 0  0.5 0.25 0  0.53125 0.25 0  0.5625 0.25 0  0.59375 0.25 0  0.625 0.25 0  0.65625 0.25 0  0.6875 0.25 0  0.71875 0.25 0  0.75 0.25 0  0.78125 0.25 0  0.8125 0.25 0  0.84375 0.25 0  0.875 0.25 0  0.90625 0.25 0  0.9375 0.25 0  0.96875 0.25 0  1 0.25 0  0 0.28125 0  0.03125 0.28125 0  0.0625 0.28125 0  0.09375 0.28125 0  0.125 0.28125 0  0.15625 0.28125 0  0.1875 0.28125 0  0.21875 0.28125 0  0.25 0.28125 0  0.28125 0.28125 0  0.3125 0.28125 0  0.34375 0.28125 0  0.375 0.28125 0  0.40625 0.28125 0  0.4375 0.28125 0  0.46875 0.28125 0  0.5 0.28125 0  0.53125 0.28125 0  0.5625 0.28125 0  0.59375 0.28125 0  0.625 0.28125 0  0.65625 0.28125 0  0.6875 0.28125 0  0.71875 0.28125 0  0.75 0.28125 0  0.78125 0.28125 0  0.8125 0.28125 0  0.84375 0.28125 0  0.875 0.28125 0  0.90625 0.28125 0  0.9375 0.28125 0  0.96875 0.28125 0  1 0.28125 0  0 0.3125 0  0.03125 0.3125 0  0.0625 0.3125 0  0.09375 0.3125 0  0.125 0.3125 0  0.15625 0.3125 0  0.1875 0.3125 0  0.21875 0.3125 0  0.25 0.3125 0  0.28125 0.3125 0  0.3125 0.3125 0  0.34375 0.3125 0  0.375 0.3125 0  0.40625 0.3125 0  0.4375 0.3125 0  0.46875 0.3125 0  0.5 0.3125 0  0.53125 0.3125 0  0.5625 0.3125 0  0.59375 0.3125 0  0.625 0.3125 0  0.65625 0.3125 0  0.6875 0.3125 0  0.71875 0.3125 0  0.75 0.3125 0  0.78125 0.3125 0  0.8125 0.3125 0  0.84375 0.3125 0  0.875 0.3125 0  0.90625 0.3125 0  0.9375 0.3125 0  0.96875 0.3125 0  1 0.3125 0  0 0.34375 0  0.03125 0.34375 0  0.0625 0.34375 0  0.09375 0.34375 0  0.125 0.34375 0  0.15625 0.34375 0  0.1875 0.34375 0  0.21875 0.34375 0  0.25 0.34375 0  0.28125 0.34375 0  0.3125 0.34375 0  0.34375 0.34375 0  0.375 0.34375 0  0.40625 0.34375 0  0.4375 0.34375 0  0.46875 0.34375 0  0.5 0.34375 0  0.53125 0.34375 0  0.5625 0.34375 0  0.59375 0.34375 0  0.625 0.34375 0  0.65625 0.34375 0  0.6875 0.34375 0  0.71875 0.34375 0  0.75 0.34375 0  0.78125 0.34375 0  0.8125 0.34375 0  0.84375 0.34375 0  0.875 0.34375 0  0.90625 0.34375 0  0.9375 0.34375 0  0.96875 0.34375 0  1 0.34375 0  0 0.375 0  0.03125 0.375 0  0.0625 0.375 0  0.09375 0.375 0  0.125 0.375 0  0.15625 0.375 0  0.1875 0.375 0  0.21875 0.375 0  0.25 0.375 0  0.28125 0.375 0  0.3125 0.375 0  0.34375 0.375 0  0.375 0.375 0  0.40625 0.375 0  0.4375 0.375 0  0.46875 0.375 0  0.5 0.375 0  0.53125 0.375 0  0.5625 0.375 0  0.59375 0.375 0  0.625 0.375 0  0.65625 0.375 0  0.6875 0.375 0  0.71875 0.375 0  0.75 0.375 0  0.78125 0.375 0  0.8125 0.375 0  0.84375 0.375 0  0.875 0.375 0  0.90625 0.375 0  0.9375 0.375 0  0.96875 0.375 0  1 0.375 0  0 0.40625 0  0.03125 0.40625 0  0.0625 0.40625 0  0.09375 0.40625 0  0.125 0.40625 0  0.15625 0.40625 0  0.1875 0.40625 0  0.21875 0.40625 0  0.25 0.40625 0  0.28125 0.40625 0  0.3125 0.40625 0  0.34375 0.40625 0  0.375 0.40625 0  0.40625 0.40625 0  0.4375 0.40625 0  0.46875 0.40625 0  0.5 0.40625 0  0.53125 0.40625 0  0.5625 0.40625 0  0.59375 0.40625 0  0.625 0.40625 0  0.65625 0.40625 0  0.6875 0.40625 0  0.71875 0.40625 0  0.75 0.40625 0  0.78125 0.40625 0  0.8125 0.40625 0  0.84375 0.40625 0  0.875 0.40625 0  0.90625 0.40625 0  0.9375 0.40625 0  0.96875 0.40625 0  1 0.40625 0  0 0.4375 0  0.03125 0.4375 0  0.0625 0.4375 0  0.09375 0.4375 0  0.125 0.4375 0  0.15625 0.4375 0  0.1875 0.4375 0  0.21875 0.4375 0  0.25 0.4375 0  0.28125 0.4375 0  0.3125 0.4375 0  0.34375 0.4375 0  0.375 0.4375 0  0.40625 0.4375 0  0.4375 0.4375 0  0.46875 0.4375 0  0.5 0.4375 0  0.53125 0.4375 0  0.5625 0.4375 0  0.59375 0.4375 0  0.625 0.4375 0  0.65625 0.4375 0  0.6875 0.4375 0  0.71875 0.4375 0  0.75 0.4375 0  0.78125 0.4375 0  0.8125 0.4375 0  0.84375 0.4375 0  0.875 0.4375 0  0.90625 0.4375 0  0.9375 0.4375 0  0.96875 0.4375 0  1 0.4375 0  0 0.46875 0  0.03125 0.46875 0  0.0625 0.46875 0  0.09375 0.46875 0  0.125 0.46875 0  0.15625 0.46875 0  0.1875 0.46875 0  0.21875 0.46875 0  0.25 0.46875 0  0.28125 0.46875 0  0.3125 0.46875 0  0.34375 0.46875 0  0.375 0.46875 0  0.40625 0.46875 0  0.4375 0.46875 0  0.46875 0.46875 0  0.5 0.46875 0  0.53125 0.46875 0  0.5625 0.46875 0  0.59375 0.46875 0  0.625 0.46875 0  0.65625 0.46875 0  0.6875 0.46875 0  0.71875 0.46875 0  0.75 0.46875 0  0.78125 0.46875 0  0.8125 0.46875 0  0.84375 0.46875 0  0.875 0.46875 0  0.90625 0.46875 0  0.9375 0.46875 0  0.96875 0.46875 0  1 0.46875 0  0 0.5 0  0.03125 0.5 0  0.0625 0.5 0  0.09375 0.5 0  0.125 0.5 0  0.15625 0.5 0  0.1875 0.5 0  0.21875 0.5 0  0.25 0.5 0  0.28125 0.5 0  0.3125 0.5 0  0.34375 0.5 0  0.375 0.5 0  0.40625 0.5 0  0.4375 0.5 0  0.46875 0.5 0  0.5 0.5 0  0.53125 0.5 0  0.5625 0.5 0  0.59375 0.5 0  0.625 0.5 0  0.65625 0.5 0  0.6875 0.5 0  0.71875 0.5 0  0.75 0.5 0  0.78125 0.5 0  0.8125 0.5 0  0.84375 0.5 0  0.875 0.5 0  0.90625 0.5 0  0.9375 0.5 0  0.96875 0.5 0  1 0.5 0  0 0.53125 0  0.03125 0.53125 0  0.0625 0.53125 0  0.09375 0.53125 0  0.125 0.53125 0  0.15625 0.53125 0  0.1875 0.53125 0  0.21875 0.53125 0  0.25 0.53125 0  0.28125 0.53125 0  0.3125 0.53125 0  0.34375 0.53125 0  0.375 0.53125 0  0.40625 0.53125 0  0.4375 0.53125 0  0.46875 0.53125 0  0.5 0.53125 0  0.53125 0.53125 0  0.5625 0.53125 0  0.59375 0.53125 0  0.625 0.53125 0  0.65625 0.53125 0  0.6875 0.53125 0  0.71875 0.53125 0  0.75 0.53125 0  0.78125 0.531
[...]
<PointData  Scalars="u"> 
<DataArray  type="Float64"  Name="u"  format="ascii">0.0000000000000000e+00  0.0000000000000000e+00  0.0000000000000000e+00  0.0000000000000000e+00  0.0000000000000000e+00  0.0000000000000000e+00  0.0000000000000000e+00  0.0000000000000000e+00  0.0000000000000000e+00  0.0000000000000000e+00  0.0000000000000000e+00  0.0000000000000000e+00  0.0000000000000000e+00  0.0000000000000000e+00  0.0000000000000000e+00  0.0000000000000000e+00  0.0000000000000000e+00  0.0000000000000000e+00  0.0000000000000000e+00  0.0000000000000000e+00  0.0000000000000000e+00  0.0000000000000000e+00  0.0000000000000000e+00  0.0000000000000000e+00  0.0000000000000000e+00  0.0000000000000000e+00  0.0000000000000000e+00  0.0000000000000000e+00  0.0000000000000000e+00  0.0000000000000000e+00  0.0000000000000000e+00  0.0000000000000000e+00  0.0000000000000000e+00  0.0000000000000000e+00  1.5468030447504338e-02  3.0862126616632776e-02  4.6071590453351831e-02  6.0915200454794240e-02  7.5119964606961576e-02  8.8323206017353842e-02  1.0011001357104651e-01  1.1008907471032142e-01  1.1799499480973943e-01  1.2379833394498668e-01  1.2776951719524587e-01  1.3041109700516682e-01  1.3229439772508794e-01  1.3392504766620170e-01  1.3567435872592598e-01  1.3775337469229584e-01  1.4019710283839654e-01  1.4283981306853127e-01  1.4528239877759103e-01  1.4687570088146720e-01  1.4676292581598693e-01  1.4402044210682338e-01  1.3789793169343059e-01  1.2814020252986444e-01  1.1520580357900451e-01  1.0004761811625562e-01  8.3651025386921887e-02  6.6762138644424748e-02  4.9829802995616568e-02  3.3055186590536710e-02  1.6468763083561370e-02  0.0000000000000000e+00  0.0000000000000000e+00  3.1003994810151925e-02  6.1897167516316062e-02  9.2490814874222144e-02  1.2244395313044318e-01  1.5120922421351335e-01  1.7802502823113298e-01  2.0198721455277513e-01  2.2221225752862583e-01  2.3806013113771193e-01  2.4940766142815965e-01  2.5686164742666501e-01  2.6158781855780910e-01  2.6486042434369883e-01  2.6775692248685773e-01  2.7104417165793726e-01  2.7515908978776782e-01  2.8019629910534333e-01  2.8585787431225745e-01  2.9136436216559786e-01  2.9537840334325755e-01  2.9605005085573938e-01  2.9129663870922617e-01  2.7929943263258528e-01  2.5933038010008697e-01  2.3252345503608868e-01  2.0124178590403341e-01  1.6772370734520536e-01  1.3351668054360644e-01  9.9467566328240276e-02  6.5901672385937748e-02  3.2810996960532524e-02  0.0000000000000000e+00  0.0000000000000000e+00  4.6638467469754030e-02  9.3206907797761487e-02  1.3951129870225021e-01  1.8510523881093185e-01  2.2917624550370680e-01  2.7049466812070755e-01  3.0750733967941946e-01  3.3861908803312690e-01  3.6254421296331424e-01  3.7885233853813111e-01  3.8865381965781171e-01  3.9422177642764633e-01  3.9783232426004916e-01  4.0124333849158994e-01  4.0563290913914024e-01  4.1167409543521344e-01  4.1957091117092737e-01  4.2898365528578036e-01  4.3883280877331327e-01  4.4705433953256069e-01  4.5053483828251906e-01  4.4554688475486187e-01  4.2838604344243936e-01  3.9708315195066901e-01  3.5407433752785972e-01  3.0447586452241315e-01  2.5233542507207418e-01  2.0000561589659505e-01  1.4854985969037590e-01  9.8229483226827313e-02  4.8853926951200034e-02  0.0000000000000000e+00  0.0000000000000000e+00  6.2322504275206678e-02  1.2473877494287505e-01  1.8717504130364079e-01  2.4919319955112479e-01  3.0976875115993274e-01  3.6711468474958070e-01  4.1875346488889920e-01  4.6203349866662230e-01  4.9448294248434899e-01  5.1467935058060765e-01  5.2460742902867052e-01  5.2879554248159633e-01  5.3103160955498208e-01  5.3380695971353065e-01  5.3863049812268293e-01  5.4637212931667045e-01  5.5741876894334907e-01  5.7158651051283160e-01  5.8774578168410374e-01  6.0318140380695706e-01  6.1309731618054941e-01  6.1150445886060367e-01  5.9112064468240333e-01  5.4607371169274532e-01  4.8181290325426041e-01  4.0993222767738990e-01  3.3689757608476922e-01  2.6545174388378678e-01  1.9638500088733971e-01  1.2954571170249679e-01  6.4344841531656483e-02  0.0000000000000000e+00  0.0000000000000000e+00  7.7882069007920329e-02  1.5618679056851009e-01  2.3515286407887762e-01  3.1457171684958840e-01  3.9338538859733702e-01  4.6918424757804772e-01  5.3806023976802420e-01  5.9596349269317295e-01  6.3837843593162624e-01  6.6053708677801692e-01  6.6614844417288854e-01  6.6525705530452695e-01  6.6370022530345774e-01  6.6437658700491187e-01  6.6877517776811946e-01  6.7780235195049732e-01  6.9211343363754574e-01  7.1205546679805654e-01  7.3709410853272861e-01  7.6437280008931041e-01  7.8654957420180438e-01  7.9550724800813100e-01  7.7772623259654428e-01  7.1354339612324869e-01  6.1656287175228763e-01  5.1607548866402231e-01  4.1953211812190860e-01  3.2828521297182872e-01  2.4184083027529718e-01  1.5913392413034980e-01  7.8938985388526020e-02  0.0000000000000000e+00  0.0000000000000000e+00  9.2976342531230521e-02  1.8688329118524613e-01  2.8252805553883936e-01  3.8033078765770745e-01  4.7970427227936846e-01  5.7777298639206076e-01  6.6785837523584490e-01  7.4485507851056232e-01  8.0201733024521260e-01  8.2252033708488570e-01  8.1391046907557785e-01  8.0224230710295652e-01  7.9410592880387032e-01  7.9126439645740998e-01  7.9435284324343358e-01  8.0397771302815746e-01  8.2111588685194881e-01  8.4721526164995919e-01  8.8377892234398669e-01  9.2998970725849217e-01  9.7229030055795362e-01  9.9232951002985947e-01  9.8395009396756539e-01  8.9992192488345668e-01  7.5394924293694987e-01  6.1763876959440789e-01  4.9642603274382002e-01  3.8601868525976646e-01  2.8336998833577315e-01  1.8610022740515827e-01  9.2227399577386474e-02  0.0000000000000000e+00  0.0000000000000000e+00  1.0708505383568794e-01  2.1572355502666554e-01  3.2754371114677788e-01  4.4420724911527870e-01  5.6687695678694339e-01  6.9374100769725688e-01  8.1000760506676528e-01  8.9997119768961442e-01  9.7591409081496761e-01  1.0001321115698374e+00  9.6426253022521291e-01  9.3544703885189651e-01  9.1913269702746270e-01  9.1223965934987616e-01  9.1344705442436480e-01  9.2265898604766017e-01  9.4106709498908070e-01  9.7162555163545394e-01  1.0202420731101307e+00  1.0857939890577635e+00  1.1534168153836664e+00  1.1776267185521232e+00  1.1490719070749993e+00  1.0444473807087509e+00  8.6772782127465997e-01  7.0329881298995123e-01  5.6197458132966593e-01  4.3564254118099727e-01  3.1930204665852774e-01  2.0954487796021476e-01  1.0381423927717252e-01  0.0000000000000000e+00  0.0000000000000000e+00  1.1957493869065988e-01  2.4123842419940880e-01  3.6746481812483878e-01  5.0167388136035895e-01  6.4924405286722775e-01  8.0667169217270340e-01  9.5184087204461720e-01  1.0423777066408415e+00  1.0980900889888288e+00  1.1345437762319739e+00  1.0940869444604784e+00  1.0557804709729557e+00  1.0345937192522654e+00  1.0251057292742662e+00  1.0245807630902470e+00  1.0321585227547285e+00  1.0487632725293745e+00  1.0776462935184437e+00  1.1262989113812225e+00  1.2000234135755556e+00  1.2612832198902553e+00  1.2858920965173228e+00  1.2475806255508957e+00  1.1313914106483549e+00  9.4227281602966395e-01  7.6492901945408232e-01  6.1192960632200610e-01  4.7489363178446919e-01  3.4841871426727267e-01  2.2883246275853658e-01  1.1342626998683124e-01  0.0000000000000000e+00  0.0000000000000000e+00  1.2990519762764599e-01  2.6203121002914131e-01  3.9911873628020145e-01  5.4530622664062811e-01  7.0822112247623625e-01  8.9243082296990672e-01  1.0447068729557769e+00  1.1287001281904414e+00  1.1869822775677752e+00  1.2295826465782143e+00  1.1953388978147230e+00  1.1585268733224934e+00  1.1381613123167360e+00  1.1289769644474421e+00  1.1276492002396485e+00  1.1326494703029597e+00  1.1440874075086129e+00  1.1635811050383478e+00  1.1938237100816160e+00  1.2360771592263595e+00  1.2763037360920448e+00  1.3016376150331388e+00  1.2684169137830366e+00  1.1615141608611159e+00  9.7804824243286725e-01  8.0126561575849264e-01  6.4531440881291535e-01  5.0320583326446044e-01  3.7042090374720066e-01  2.4381502966763335e-01  1.2100283346565485e-01  0.0000000000000000e+00  0.0000000000000000e+00  1.3794469779764945e-01  2.7770379750179081e-01  4.2138599253710413e-01  5.7172875808071244e-01  7.3233898505026940e-01  9.0670277676631883e-01  1.0765705421690870e+00  1.1880609245576603e+00  1.2517273748667310e+00  1.2979055112837585e+00  1.2726766387934534e+00  1.2443136180729584e+00  1.2303225849457566e+00  1.2249406846950059e+00  1.2244189977657891e+00  1.2267278409102549e+00  1.2312918213120330e+00  1.2385208792989828e+00  1.2488021238282792e+00  1.2604446488207566e+00  1.2665013678382708e+00  1.2591581906073752e+00  1.2204309232351931e+00  1.1386360574738918e+00  9.8026674445727568e-01  8.1590202690700564e-01  6.6430562665434667e-01  5.2185602299602496e-01  3.8604554018335563e-01  2.5489620369044247e-01  1.2672259834297978e-01  0.0000000000000000e+00  0.0000000000000000e+00  1.4410762737865287e-01  2.8931128684303897e-01  4.3673670161701228e-01  5.8745855718691953e-01  7.4202798312344198e-01  8.9889432268704217e-01  1.0504457252035426e+00  1.1787443692047912e+00  1.2814054590359814e+00  1.3341271475220673e+00  1.3266926812494697e+00  1.3152163757128941e+00  1.3136338716249867e+00  1.3159691112524308e+00  1.3183653083853510e+00  1.3185683275002169e+00  1.3157901902542557e+00  1.3102388101216196e+00  1.3020481350864253e+00  1.2897600572341787e+00  1.2691617418825785e+00  1.2340659921440829e+00  1.1757865996561478e+00  1.0887431620496812e+00  9.6187233974522157e-01  8.1706675193301104e-01  6.7370472926697222e-01  5.3359739629134817e-01  3.9685477772363997e-01  2.6292050839584424e-01  1.3095627244746538e-01  0.0000000000000000e+00  0.0000000000000000e+00  1.4912400511440180e-01  2.9858137710274824e-01  4.4858423982662321e-01  5.9900397443985753e-01  7.4890369467886608e-01  8.9565508869270072e-01  1.0338044642516349e+00  1.1555634604791625e+00  1.2575686474056076e+00  1.3271684929125245e+00  1.3583954522370363e+00  1.3757452212842316e+00  1.3927686345348702e+00  1.4068135345227402e+00  1.4144538759160719e+00  1.4133601861796936e+00  1.4030065505413669e+00  1.3844677453116756e+00  1.3591421221524136e+00  1.3269745795246031e+00  1.2857279231723857e+00  1.2314003500144042e+00  1.1590448623829948e+00  1.0650370978910051e+00  9.4792177700520097e-01  8.1629274680226471e-01  6.7953441398468339e-01  5.4178783353269955e-01  4.0475432373742781e-01  2.6892504516475757e-01  1.3416154078133657e-01  0.0000000000000000e+00  0.0000000000000000e+00  1.5376797908405038e-01  3.0721709815454995e-01  4.5985810295145613e-01  6.1081938247475398e-01  7.5855603157041385e-01  9.0050135403822107e-01  1.0328888224946575e+00  1.1513534273575781e+00  1.2525126664941997e+00  1.3322213301589572e+00  1.3905602514146211e+00  1.4361570843481877e+00  1.4745756081509951e+00  1.5038394926325287e+00  1.5191027296992416e+00  1.5172660267954021e+00  1.4982708340526789e+00  1.4653302035035742e+00  1.4228775605088382e+00  1.3729910097548148e+00  1.3150046237568329e+00  1.2463056138331663e+00  1.1634469220662234e+00  1.0639374739704419e+00  9.4806218376241458e-01  8.2034446136435002e-01  6.8616146166960446e-01  5.4915945770843755e-01  4.1139973875288938e-01  2.7384477457476480e-01  1.3675889337227523e-01  0.0000000000000000e+00  0.0000000000000000e+00  1.5869905813398361e-01  3.1659041487085288e-01  4.7269052246022253e-01  6.2567205566725104e-01  7.7373042974301365e-01  9.1454381913830829e-01  1.0454433480826941e+00  1.1639226439217927e+00  1.2683388914420963e+00  1.3580798573918855e+00  1.4349545574041156e+00  1.5032936531325212e+00  1.5651147119838491e+00  1.6144534299843347e+00  1.6404522391238390e+00  1.6379633204486501e+00  1.6071631889996800e+00  1.5554363939441638e+00  1.4938062806911174e+00  1.4268648439137404e+00  1.3547265057121423e+00  1.2750717971023278e+00  1.1841851338020253e+00  1.0789058722687368e+00  9.5980029302898917e-01  8.3069060422601237e-01  6.9550857263397348e-01  5.5724533578858515e-01  4.1783139128126112e-01  2.7830127120957238e-01  1.3903531661459539e-01  0.0000000000000000e+00  0.0000000000000000e+00  1.6440578418480689e-01  3.2768732631042841e-01  4.8853071011797444e-01  6.4528486965222243e-01  7.9592663761946414e-01  9.3821293389582772e-01  1.0700693824369472e+00  1.1901537282314192e+00  1.2983990973557504e+00  1.3963340556902986e+00  1.4873835800386785e+00  1.5763917221352375e+00  1.6674889600639817e+00  1.7476694109696600e+00  1.7895127572711291e+00  1.7862336550822404e+00  1.7363544102669410e+00  1.6549560151967597e+00  1.5696706205071891e+00  1.4856311409943721e+00  1.4016917584759210e+00  1.3148052462836370e+00  1.2190612082037611e+00  1.1074770275218484e+00  9.8137222031330051e-01  8.4700115088665540e-01  7.0788615108800923e-01  5.6647354321500842e-01  4.2439453977203667e-01  2.8251491734965645e-01  1.4109497437390317e-01  0.0000000000000000e+00  0.0000000000000000e+00  1.7119425539550004e-01  3.4113682189099614e-01  5.0832658244171847e-01  6.7082371047579537e-01  8.2623648972582142e-01  9.7201568362874680e-01  1.1061213680125357e+00  1.2278325123392526e+00  1.3383327944018968e+00  1.4409777439106863e+00  1.5412635334045679e+00  1.6466496607604666e+00  1.7670095400854784e+00  1.8924324746163097e+00  1.9567873519131569e+00  1.9542408128322992e+00  1.8831864951319526e+00  1.7575394236639446e+00  1.6436907550074171e+00  1.5438459343772080e+00  1.4512301746368048e+00  1.3630524527597150e+00  1.2694578773537064e+00  1.1503031776243824e+00  1.0110215551083925e+00  8.6794300365492938e-01  7.2251263901896712e-01  5.7636456816599724e-01  4.3077892927872857e-01  2.8629463337104905e-01  1.4284631727081973e-01  0.0000000000000000e+00  0.0000000000000000e+00  1.7916958600941310e-01  3.5721109931127426e-01  5.3261996490804564e-01  7.0318224178009781e-01  8.6584750170312363e-01  1.0170989059491047e+00  1.1541245541514422e+00  1.2762358206227471e+00  1.3855876950084216e+00  1.4873712650655797e+00  1.5892978757385425e+00  1.7009473464884677e+00  1.8345404484862264e+00  1.9814551133906921e+00  2.0611463463291515e+00  2.0609755086277728e+00  1.9806909119099934e+00  1.8343089298530426e+00  1.7028275509759561e+00  1.5941729420797102e+00  1.4957861502909671e+00  1.4034235716839116e+00  1.3193542838909178e+00  1.2000562155824392e+00  1.0441753046592352e+00  8.9105761187698562e-01  7.3776697490759868e-01  5.8566560677527513e-01  4.3606969601460954e-01  2.8905795010812085e-01  1.4401018847168759e-01  0.0000000000000000e+00  0.0000000000000000e+00  1.8817309824180464e-01  3.7572078444748280e-01  5.6146012850176619e-01  7.4303313026583551e-01  9.1636853426393339e-01  1.0758212321941372e+00  1.2163960284046025e+00  1.3367129700935740e+00  1.4396883573722261e+00  1.5328322927215334e+00  1.6266786112186393e+00  1.7320998996387105e+00  1.8615417434037609e+00  2.0077260973394830e+00  2.0895182002971420e+00  2.0919872329012494e+00  2.0143534988299443e+00  1.8690155723335857e+00  1.7379765605843736e+00  1.6333379268294954e+00  1.5335722342428495e+00  1.4220332165613243e+00  1.3143276351972137e+00  1.1963114779057467e+00  1.0613300282252882e+00  9.1404832571740069e-01  7.5166481877332514e-01  5.9238623335990270e-01  4.3875675246120749e-01  2.8986247319148595e-01  1.4414504684879331e-01  0.0000000000000000e+00  0.0000000000000000e+00  1.9765479693111632e-01  3.9574547831733953e-01  5.9401675120814457e-01  7.9050852650750958e-01  9.8000361374617206e-01  1.1525275102961532e+00  1.2979542213734274e+00  1.4135314365045051e+00  1.5026168494338215e+00  1.5765643529544433e+00  1.6513577087229567e+00  1.7378684442315395e+00  1.8444535241632378e+00  1.9682740721965397e+00  2.0412007042407456e+00  2.0470734219860498e+00  1.9855640806913031e+00  1.8620341786077272e+00  1.7453354717487906e+00  1.6537128006340238e+00  1.5693797256214796e+00  1.4359790456793113e+00  1.3060734252299215e+00  1.1832736001781015e+00  1.0646280593713313e+00  9.3891246858248845e-01  7.6218633608861741e-01  5.9332114531343783e-01  4.3665430027647328e-01  2.8747695701073367e-01  1.4270820746115007e-01  0.0000000000000000e+00  0.0000000000000000e+00  2.0649632267389167e-01  4.1517693407557449e-01  6.2770947875941585e-01  8.4408540898440476e-01  1.0594649752062828e+00  1.2549866569152621e+00  1.4079104770861395e+00  1.5153833662695331e+00  1.5792913329570748e+00  1.6181289819038078e+00  1.6629906247615782e+00  1.7220928371981237e+00  1.7955695233270419e+00  1.8752677178966970e+00  1.9296274015247625e+00  1.9391868070068086e+00  1.9014440295395296e+00  1.8207531367091661e+00  1.7260809559678070e+00  1.6398971190719642e+00  1.5635810314944121e+00  1.4326516790178228e+00  1.2898886390352389e+00  1.1653463629699505e+00  1.0487469039269266e+00  9.2472661530410916e-01  7.5168259477955501e-01  5.8186041021579782e-01  4.2697612113426431e-01  2.8065312235059930e-01  1.3920427708276464e-01  0.0000000000000000e+00  0.0000000000000000e+00  2.1288820693867483e-01  4.3021162120489331e-01  6.5669029930355960e-01  8.9741539566202433e-01  1.1443656621355276e+00  1.3725220073936824e+00  1.5356386021532913e+00  1.6331473181365079e+00  1.6663478124982132e+00  1.6519924499116032e+00  1.6588410162017300e+00  1.6903913653844573e+00  1.7387559205419225e+00  1.7928524613179333e+00  1.8351064700816351e+00  1.8507859922624510e+00  1.8325643366739617e+00  1.7787829275728138e+00  1.6967222244099298e+00  1.6019880975493526e+00  1.5088027668068023e+00  1.4016780799981279e+00  1.2545823600546764e+00  1.1259192053424181e+00  1.0140038662667545e+00  8.6946365175654994e-01  7.1196407918272131e-01  5.5523530574696300e-01  4.0863494560337804e-01  2.6891696613031385e-01  1.3344520582748465e-01  0.0000000000000000e+00  0.0000000000000000e+00  2.1452404513017548e-01  4.3542152752742486e-01  6.7033284748285005e-01  9.3012769547080065e-01  1.2075440670124296e+00  1.4374311068336241e+00  1.5983043620538659e+00  1.6846052827674420e+00  1.6962203967055043e+00  1.6498085106206304e+00  1.6282336429708741e+00  1.6402392284938072e+00  1.6745347229285545e+00  1.7204597512857509e+00  1.7651770934775552e+00  1.7942046743358087e+00  1.7971734570051625e+00  1.7631570520350925e+00  1.6783229021475712e+00  1.5610291546440715e+00  1.4410516332563441e+00  1.3200377875886180e+00  1.1871378962181844e+00  1.0562014875838728e+00  9.3451919466128242e-01  8.0104177669595134e-01  6.5831726651076949e-01  5.1827727077676167e-01  3.8331804180186013e-01  2.5289921287090966e-01  1.2564950925513116e-01  0.0000000000000000e+00  0.0000000000000000e+00  2.0942751890165845e-01  4.2585943211130206e-01  6.5783687209336261e-01  9.1776244023377485e-01  1.2006271506847965e+00  1.4276244280041150e+00  1.5787802067609744e+00  1.6540668876580351e+00  1.6533940708858117e+00  1.5948716818074375e+00  1.5621259976294952e+00  1.5660860328736452e+00  1.5969936399146236e+00  1.6474711318711726e+00  1.7089555064538018e+00  1.7615366592214763e+00  1.7837541105655736e+00  1.7706090618402728e+00  1.6776649278468974e+00  1.5211437565276016e+00  1.3730093998452140e+00  1.2364103449690520e+00  1.1040924090780859e+00  9.7656403036332884e-01  8.5350143517825938e-01  7.2866404055173106e-01  6.0171070937596105e-01  4.7608799016888870e-01  3.5339296699531120e-01  2.3368860893258614e-01  1.1624788253016832e-01  0.0000000000000000e+00  0.0000000000000000e+00  1.9695619746748472e-01  3.9996494794104342e-01  6.1608733094367196e-01  8.5491381556362633e-01  1.1190218844596240e+00  1.3369640777656007e+00  1.4781828596479571e+00  1.5426453039013985e+00  1.5375575837057960e+00  1.4861435809912775e+00  1.4573343038978406e+00  1.4632431280901566e+00  1.4981642368790926e+00  1.5616083984236988e+00  1.6467258480627860e+00  1.7312705593603817e+00  1.7647831832280980e+00  1.7402631014477035e+00  1.6360583675842122e+00  1.4582967493549903e+00  1.2920741982163590e+00  1.1474765617695284e+00  1.0154948859162312e+00  8.9190178304703605e-01  7.7384594185737532e-01  6.5811017565917662e-01  5.4359175099719836e-01  4.3087680732341699e-01  3.2043973177326301e-01  2.1220583602117626e-01  1.0565387469505713e-01  0.0000000000000000e+00  0.0000000000000000e+00  1.7807898311533771e-01  3.6020692375032420e-01  5.5040222592436439e-01  7.5215468481176462e-01  9