<?xml version="1.0"?>
<VTKFile type="UnstructuredGrid"  version="0.1"  >
<UnstructuredGrid>
<Piece  NumberOfPoints="1089" NumberOfCells="2048">
<Points>
<DataArray  type="Float64"  NumberOfComponents="3"  format="ascii">0 0 0  0.03125 0 0  0.0625 0 0  0.09375 0 0  0.125 0 0  0.15625 0 0  0.1875 0 0  0.21875 0 0  0.25 0 0  0.28125 0 0  0.3125 0 0  0.34375 0 0  0.375 0 0  0.40625 0 0  0.4375 0 0  0.46875 0 0  0.5 0 0  0.53125 0 0  0.5625 0 0  0.59375 0 0  0.625 0 0  0.65625 0 0  0.6875 0 0  0.71875 0 0  0.75 0 0  0.78125 0 0  0.8125 0 0  0.84375 0 0  0.875 0 0  0.90625 0 0  0.9375 0 0  0.96875 0 0  1 0 0  0 0.03125 0  0.03125 0.03125 0  0.0625 0.03125 0  0.09375 0.03125 0  0.125 0.03125 0  0.15625 0.03125 0  0.1875 0.03125 0  0.21875 0.03125 0  0.25 0.03125 0  0.28125 0.03125 0  0.3125 0.03125 0  0.34375 0.03125 0  0.375 0.03125 0  0.40625 0.03125 0  0.4375 0.03125 0  0.46875 0.03125 0  0.5 0.03125 0  0.53125 0.03125 0  0.5625 0.03125 0  0.59375 0.03125 0  0.625 0.03125 0  0.65625 0.03125 0  0.6875 0.03125 0  0.71875 0.03125 0  0.75 0.03125 0  0.78125 0.03125 0  0.8125 0.03125 0  0.84375 0.03125 0  0.875 0.03125 0  0.90625 0.03125 0  0.9375 0.03125 0  0.96875 0.03125 0  1 0.03125 0  0 0.0625 0  0.03125 0.0625 0  0.0625 0.0625 0  0.09375 0.0625 0  0.125 0.0625 0  0.15625 0.0625 0  0.1875 0.0625 0  0.21875 0.0625 0  0.25 0.0625 0  0.28125 0.0625 0  0.3125 0.0625 0  0.34375 0.0625 0  0.375 0.0625 0  0.40625 0.0625 0  0.4375 0.0625 0  0.46875 0.0625 0  0.5 0.0625 0  0.53125 0.0625 0  0.5625 0.0625 0  0.59375 0.0625 0  0.625 0.0625 0  0.65625 0.0625 0  0.6875 0.0625 0  0.71875 0.0625 0  0.75 0.0625 0  0.78125 0.0625 0  0.8125 0.0625 0  0.84375 0.0625 0  0.875 0.0625 0  0.90625 0.0625 0  0.9375 0.0625 0  0.96875 0.0625 0  1 0.0625 0  0 0.09375 0  0.03125 0.09375 0  0.0625 0.09375 0  0.09375 0.09375 0  0.125 0.09375 0  0.15625 0.09375 0  0.1875 0.09375 0  0.21875 0.09375 0  0.25 0.09375 0  0.28125 0.09375 0  0.3125 0.09375 0  0.34375 0.09375 0  0.375 0.09375 0  0.40625 0.09375 0  0.4375 0.09375 0  0.46875 0.09375 0  0.5 0.09375 0  0.53125 0.09375 0  0.5625 0.09375 0  0.59375 0.09375 0  0.625 0.09375 0  0.65625 0.09375 0  0.6875 0.09375 0  0.71875 0.09375 0  0.75 0.09375 0  0.78125 0.09375 0  0.8125 0.09375 0  0.84375 0.09375 0  0.875 0.09375 0  0.90625 0.09375 0  0.9375 0.09375 0  0.96875 0.09375 0  1 0.09375 0  0 0.125 0  0.03125 0.125 0  0.0625 0.125 0  0.09375 0.125 0  0.125 0.125 0  0.15625 0.125 0  0.1875 0.125 0  0.21875 0.125 0  0.25 0.125 0  0.28125 0.125 0  0.3125 0.125 0  0.34375 0.125 0  0.375 0.125 0  0.40625 0.125 0  0.4375 0.125 0  0.46875 0.125 0  0.5 0.125 0  0.53125 0.125 0  0.5625 0.125 0  0.59375 0.125 0  0.625 0.125 0  0.65625 0.125 0  0.6875 0.125 0  0.71875 0.125 0  0.75 0.125 0  0.78125 0.125 0  0.8125 0.125 0  0.84375 0.125 0  0.875 0.125 0  0.90625 0.125 0  0.9375 0.125 0  0.96875 0.125 0  1 0.125 0  0 0.15625 0  0.03125 0.15625 0  0.0625 0.15625 0  0.09375 0.15625 0  0.125 0.15625 0  0.15625 0.15625 0  0.1875 0.15625 0  0.21875 0.15625 0  0.25 0.15625 0  0.28125 0.15625 0  0.3125 0.15625 0  0.34375 0.15625 0  0.375 0.15625 0  0.40625 0.15625 0  0.4375 0.15625 0  0.46875 0.15625 0  0.5 0.15625 0  0.53125 0.15625 0  0.5625 0.15625 0  0.59375 0.15625 0  0.625 0.15625 0  0.65625 0.15625 0  0.6875 0.15625 0  0.71875 0.15625 0  0.75 0.15625 0  0.78125 0.15625 0  0.8125 0.15625 0  0.84375 0.15625 0  0.875 0.15625 0  0.90625 0.15625 0  0.9375 0.15625 0  0.96875 0.15625 0  1 0.15625 0  0 0.1875 0  0.03125 0.1875 0  0.0625 0.1875 0  0.09375 0.1875 0  0.125 0.1875 0  0.15625 0.1875 0  0.1875 0.1875 0  0.21875 0.1875 0  0.25 0.1875 0  0.28125 0.1875 0  0.3125 0.1875 0  0.34375 0.1875 0  0.375 0.1875 0  0.40625 0.1875 0  0.4375 0.1875 0  0.46875 0.1875 0  0.5 0.1875 0  0.53125 0.1875 0  0.5625 0.1875 0  0.59375 0.1875 0  0.625 0.1875 0  0.65625 0.1875 0  0.6875 0.1875 0  0.71875 0.1875 0  0.75 0.1875 0  0.78125 0.1875 0  0.8125 0.1875 0  0.84375 0.1875 0  0.875 0.1875 0  0.90625 0.1875 0  0.9375 0.1875 0  0.96875 0.1875 0  1 0.1875 0  0 0.21875 0  0.03125 0.21875 0  0.0625 0.21875 0  0.09375 0.21875 0  0.125 0.21875 0  0.15625 0.21875 0  0.1875 0.21875 0  0.21875 0.21875 0  0.25 0.21875 0  0.28125 0.21875 0  0.3125 0.21875 0  0.34375 0.21875 0  0.375 0.21875 0  0.40625 0.21875 0  0.4375 0.21875 0  0.46875 0.21875 0  0.5 0.21875 0  0.53125 0.21875 0  0.5625 0.21875 0  0.59375 0.21875 0  0.625 0.21875 0  0.65625 0.21875 0  0.6875 0.21875 0  0.71875 0.21875 0  0.75 0.21875 0  0.78125 0.21875 0  0.8125 0.21875 0  0.84375 0.21875 0  0.875 0.21875 0  0.90625 0.21875 0  0.9375 0.21875 0  0.96875 0.21875 0  1 0.21875 0  0 0.25 0  0.03125 0.25 0  0.0625 0.25 0  0.09375 0.25 0  0.125 0.25 0  0.15625 0.25 0  0.1875 0.25 0  0.21875 0.25 0  0.25 0.25 0  0.28125 0.25 0  0.3125 0.25 0  0.34375 0.25 0  0.375 0.25 0  0.40625 0.25 0  0.4375 0.25 0  0.46875 0.25 0  0.5 0.25 0  0.53125 0.25 0  0.5625 0.25 0  0.59375 0.25 0  0.625 0.25 0  0.65625 0.25 0  0.6875 0.25 0  0.71875 0.25 0  0.75 0.25 0  0.78125 0.25 0  0.8125 0.25 0  0.84375 0.25 0  0.875 0.25 0  0.90625 0.25 0  0.9375 0.25 0  0.96875 0.25 0  1 0.25 0  0 0.28125 0  0.03125 0.28125 0  0.0625 0.28125 0  0.09375 0.28125 0  0.125 0.28125 0  0.15625 0.28125 0  0.1875 0.28125 0  0.21875 0.28125 0  0.25 0.28125 0  0.28125 0.28125 0  0.3125 0.28125 0  0.34375 0.28125 0  0.375 0.28125 0  0.40625 0.28125 0  0.4375 0.28125 0  0.46875 0.28125 0  0.5 0.28125 0  0.53125 0.28125 0  0.5625 0.28125 0  0.59375 0.28125 0  0.625 0.28125 0  0.65625 0.28125 0  0.6875 0.28125 0  0.71875 0.28125 0  0.75 0.28125 0  0.78125 0.28125 0  0.8125 0.28125 0  0.84375 0.28125 0  0.875 0.28125 0  0.90625 0.28125 0  0.9375 0.28125 0  0.96875 0.28125 0  1 0.28125 0  0 0.3125 0  0.03125 0.3125 0  0.0625 0.3125 0  0.09375 0.3125 0  0.125 0.3125 0  0.15625 0.3125 0  0.1875 0.3125 0  0.21875 0.3125 0  0.25 0.3125 0  0.28125 0.3125 0  0.3125 0.3125 0  0.34375 0.3125 0  0.375 0.3125 0  0.40625 0.3125 0  0.4375 0.3125 0  0.46875 0.3125 0  0.5 0.3125 0  0.53125 0.3125 0  0.5625 0.3125 0  0.59375 0.3125 0  0.625 0.3125 0  0.65625 0.3125 0  0.6875 0.3125 0  0.71875 0.3125 0  0.75 0.3125 0  0.78125 0.3125 0  0.8125 0.3125 0  0.84375 0.3125 0  0.875 0.3125 0  0.90625 0.3125 0  0.9375 0.3125 0  0.96875 0.3125 0  1 0.3125 0  0 0.34375 0  0.03125 0.34375 0  0.0625 0.34375 0  0.09375 0.34375 0  0.125 0.34375 0  0.15625 0.34375 0  0.1875 0.34375 0  0.21875 0.34375 0  0.25 0.34375 0  0.28125 0.34375 0  0.3125 0.34375 0  0.34375 0.34375 0  0.375 0.34375 0  0.40625 0.34375 0  0.4375 0.34375 0  0.46875 0.34375 0  0.5 0.34375 0  0.53125 0.34375 0  0.5625 0.34375 0  0.59375 0.34375 0  0.625 0.34375 0  0.65625 0.34375 0  0.6875 0.34375 0  0.71875 0.34375 0  0.75 0.34375 0  0.78125 0.34375 0  0.8125 0.34375 0  0.84375 0.34375 0  0.875 0.34375 0  0.90625 0.34375 0  0.9375 0.34375 0  0.96875 0.34375 0  1 0.34375 0  0 0.375 0  0.03125 0.375 0  0.0625 0.375 0  0.09375 0.375 0  0.125 0.375 0  0.15625 0.375 0  0.1875 0.375 0  0.21875 0.375 0  0.25 0.375 0  0.28125 0.375 0  0.3125 0.375 0  0.34375 0.375 0  0.375 0.375 0  0.40625 0.375 0  0.4375 0.375 0  0.46875 0.375 0  0.5 0.375 0  0.53125 0.375 0  0.5625 0.375 0  0.59375 0.375 0  0.625 0.375 0  0.65625 0.375 0  0.6875 0.375 0  0.71875 0.375 0  0.75 0.375 0  0.78125 0.375 0  0.8125 0.375 0  0.84375 0.375 0  0.875 0.375 0  0.90625 0.375 0  0.9375 0.375 0  0.96875 0.375 0  1 0.375 0  0 0.40625 0  0.03125 0.40625 0  0.0625 0.40625 0  0.09375 0.40625 0  0.125 0.40625 0  0.15625 0.40625 0  0.1875 0.40625 0  0.21875 0.40625 0  0.25 0.40625 0  0.28125 0.40625 0  0.3125 0.40625 0  0.34375 0.40625 0  0.375 0.40625 0  0.40625 0.40625 0  0.4375 0.40625 0  0.46875 0.40625 0  0.5 0.40625 0  0.53125 0.40625 0  0.5625 0.40625 0  0.59375 0.40625 0  0.625 0.40625 0  0.65625 0.40625 0  0.6875 0.40625 0  0.71875 0.40625 0  0.75 0.40625 0  0.78125 0.40625 0  0.8125 0.40625 0  0.84375 0.40625 0  0.875 0.40625 0  0.90625 0.40625 0  0.9375 0.40625 0  0.96875 0.40625 0  1 0.40625 0  0 0.4375 0  0.03125 0.4375 0  0.0625 0.4375 0  0.09375 0.4375 0  0.125 0.4375 0  0.15625 0.4375 0  0.1875 0.4375 0  0.21875 0.4375 0  0.25 0.4375 0  0.28125 0.4375 0  0.3125 0.4375 0  0.34375 0.4375 0  0.375 0.4375 0  0.40625 0.4375 0  0.4375 0.4375 0  0.46875 0.4375 0  0.5 0.4375 0  0.53125 0.4375 0  0.5625 0.4375 0  0.59375 0.4375 0  0.625 0.4375 0  0.65625 0.4375 0  0.6875 0.4375 0  0.71875 0.4375 0  0.75 0.4375 0  0.78125 0.4375 0  0.8125 0.4375 0  0.84375 0.4375 0  0.875 0.4375 0  0.90625 0.4375 0  0.9375 0.4375 0  0.96875 0.4375 0  1 0.4375 0  0 0.46875 0  0.03125 0.46875 0  0.0625 0.46875 0  0.09375 0.46875 0  0.125 0.46875 0  0.15625 0.46875 0  0.1875 0.46875 0  0.21875 0.46875 0  0.25 0.46875 0  0.28125 0.46875 0  0.3125 0.46875 0  0.34375 0.46875 0  0.375 0.46875 0  0.40625 0.46875 0  0.4375 0.46875 0  0.46875 0.46875 0  0.5 0.46875 0  0.53125 0.46875 0  0.5625 0.46875 0  0.59375 0.46875 0  0.625 0.46875 0  0.65625 0.46875 0  0.6875 0.46875 0  0.71875 0.46875 0  0.75 0.46875 0  0.78125 0.46875 0  0.8125 0.46875 0  0.84375 0.46875 0  0.875 0.46875 0  0.90625 0.46875 0  0.9375 0.46875 0  0.96875 0.46875 0  1 0.46875 0  0 0.5 0  0.03125 0.5 0  0.0625 0.5 0  0.09375 0.5 0  0.125 0.5 0  0.15625 0.5 0  0.1875 0.5 0  0.21875 0.5 0  0.25 0.5 0  0.28125 0.5 0  0.3125 0.5 0  0.34375 0.5 0  0.375 0.5 0  0.40625 0.5 0  0.4375 0.5 0  0.46875 0.5 0  0.5 0.5 0  0.53125 0.5 0  0.5625 0.5 0  0.59375 0.5 0  0.625 0.5 0  0.65625 0.5 0  0.6875 0.5 0  0.71875 0.5 0  0.75 0.5 0  0.78125 0.5 0  0.8125 0.5 0  0.84375 0.5 0  0.875 0.5 0  0.90625 0.5 0  0.9375 0.5 0  0.96875 0.5 0  1 0.5 0  0 0.53125 0  0.03125 0.53125 0  0.0625 0.53125 0  0.09375 0.53125 0  0.125 0.53125 0  0.15625 0.53125 0  0.1875 0.53125 0  0.21875 0.53125 0  0.25 0.53125 0  0.28125 0.53125 0  0.3125 0.53125 0  0.34375 0.53125 0  0.375 0.53125 0  0.40625 0.53125 0  0.4375 0.53125 0  0.46875 0.53125 0  0.5 0.53125 0  0.53125 0.53125 0  0.5625 0.53125 0  0.59375 0.53125 0  0.625 0.53125 0  0.65625 0.53125 0  0.6875 0.53125 0  0.71875 0.53125 0  0.75 0.53125 0  0.78125 0.531
[...]
<PointData  Scalars="u"> 
<DataArray  type="Float64"  Name="u"  format="ascii">0.0000000000000000e+00  0.0000000000000000e+00  0.0000000000000000e+00  0.0000000000000000e+00  0.0000000000000000e+00  0.0000000000000000e+00  0.0000000000000000e+00  0.0000000000000000e+00  0.0000000000000000e+00  0.0000000000000000e+00  0.0000000000000000e+00  0.0000000000000000e+00  0.0000000000000000e+00  0.0000000000000000e+00  0.0000000000000000e+00  0.0000000000000000e+00  0.0000000000000000e+00  0.0000000000000000e+00  0.0000000000000000e+00  0.0000000000000000e+00  0.0000000000000000e+00  0.0000000000000000e+00  0.0000000000000000e+00  0.0000000000000000e+00  0.0000000000000000e+00  0.0000000000000000e+00  0.0000000000000000e+00  0.0000000000000000e+00  0.0000000000000000e+00  0.0000000000000000e+00  0.0000000000000000e+00  0.0000000000000000e+00  0.0000000000000000e+00  0.0000000000000000e+00  1.5960147963579890e-02  3.1840824095939607e-02  4.7526941559854957e-02  6.2832822570363767e-02  7.7481093183146540e-02  9.1104847049323937e-02  1.0328515176894647e-01  1.1362692747209341e-01  1.2186130616747912e-01  1.2795570400615877e-01  1.3217776299995770e-01  1.3502764077000051e-01  1.3707467836588580e-01  1.3882295137799966e-01  1.4064266428861585e-01  1.4274420908501112e-01  1.4516240269381939e-01  1.4773178748530513e-01  1.5005398903732231e-01  1.5148103268770458e-01  1.5115774978696719e-01  1.4816255841299700e-01  1.4174759493781147e-01  1.3166050323100884e-01  1.1836302294862809e-01  1.0281155326204382e-01  8.5995282700965903e-02  6.8664394172784735e-02  5.1272030606697688e-02  3.4023859498450368e-02  1.6955047358571586e-02  0.0000000000000000e+00  0.0000000000000000e+00  3.1982755022424883e-02  6.3844154211332119e-02  9.5386448835597354e-02  1.2625968664723997e-01  1.5590775172143126e-01  1.8356061047023892e-01  2.0830610054680801e-01  2.2925319323132415e-01  2.4575494591964228e-01  2.5768192448507127e-01  2.6563538638517126e-01  2.7077629242906981e-01  2.7437494272955865e-01  2.7750570267547847e-01  2.8093322500863716e-01  2.8509312862457759e-01  2.9007965523017643e-01  2.9559542021920954e-01  3.0086242609156560e-01  3.0454566942855787e-01  3.0479843591268518e-01  2.9954213740810731e-01  2.8696292331687800e-01  2.6633838394482412e-01  2.3880884188493143e-01  2.0674442090385678e-01  1.7239103353054089e-01  1.3730423399159292e-01  1.0233942278218344e-01  6.7830828017202069e-02  3.3779691985610608e-02  0.0000000000000000e+00  0.0000000000000000e+00  4.8094065773969422e-02  9.6102847813762493e-02  1.4381866407579277e-01  1.9078167150535696e-01  2.3616630863352411e-01  2.7873035096470433e-01  3.1690869618088069e-01  3.4909499882545308e-01  3.7399326069961902e-01  3.9116378604169988e-01  4.0170868000273069e-01  4.0789396356240770e-01  4.1198987227660933e-01  4.1574967717440470e-01  4.2034818303970345e-01  4.2645651343007412e-01  4.3427811328826377e-01  4.4347408353458340e-01  4.5296706878345028e-01  4.6069654001445048e-01  4.6355389564168309e-01  4.5781778064905454e-01  4.3979102364874861e-01  4.0751285562190454e-01  3.6342884677365894e-01  3.1266566527451423e-01  2.5928227142624366e-01  2.0564329162394426e-01  1.5282483241814551e-01  1.0110144874822921e-01  5.0296242237698831e-02  0.0000000000000000e+00  0.0000000000000000e+00  6.4240732658268712e-02  1.2855546966464890e-01  1.9285230367788977e-01  2.5667533033317225e-01  3.1898276089037669e-01  3.7797097824329218e-01  4.3114669352858392e-01  4.7584357093803142e-01  5.0957618135465932e-01  5.3090978503731756e-01  5.4181820603620767e-01  5.4682044467831314e-01  5.4969666319102262e-01  5.5293211663217523e-01  5.5803137502990507e-01  5.6586178717851121e-01  5.7680951510684553e-01  5.9069170606823351e-01  6.0638163667546385e-01  6.2116874315402459e-01  6.3026329959485028e-01  6.2768423861949185e-01  6.0615894586366403e-01  5.5982632036682889e-01  4.9414804918058058e-01  4.2073184925465623e-01  3.4605845665630292e-01  2.7288650996357705e-01  2.0202297433276900e-01  1.3333360897154972e-01  6.6247313082850312e-02  0.0000000000000000e+00  0.0000000000000000e+00  8.0244381774742815e-02  1.6088737217668478e-01  2.4214524347221394e-01  3.2378743260327592e-01  4.0473463669511756e-01  4.8255673810679045e-01  5.5332625567415838e-01  6.1297514025496236e-01  6.5697107406128963e-01  6.8053092031288176e-01  6.8735026472012195e-01  6.8746211186155592e-01  6.8669420574419870e-01  6.8793769058953880e-01  6.9267625810245148e-01  7.0181310929433804e-01  7.1600263514287976e-01  7.3559317314919759e-01  7.6005388556022457e-01  7.8653389423430975e-01  8.0769903121246078e-01  8.1544195494768479e-01  7.9625486412587876e-01  7.3048824707932491e-01  6.3176155926551170e-01  5.2938250842357493e-01  4.3082024087478665e-01  3.3744670886204531e-01  2.4878851006001471e-01  1.6380198739764726e-01  8.1283666252125367e-02  0.0000000000000000e+00  0.0000000000000000e+00  9.5759997959195306e-02  1.9242252529118128e-01  2.9076829938881699e-01  3.9119150548532139e-01  4.9307973588269061e-01  5.9353329388095732e-01  6.8585070563923889e-01  7.6490517038460870e-01  8.2393116959594703e-01  8.4608603755700118e-01  8.3890032536828940e-01  8.2841500089000353e-01  8.2120886502351220e-01  8.1903614668535463e-01  8.2252567196261173e-01  8.3228016196352939e-01  8.4927539214587566e-01  8.7496077851250265e-01  9.1084353191918044e-01  9.5611318079625229e-01  9.9722159656374099e-01  1.0158291808701576e+00  1.0057925794260596e+00  9.1989771137491161e-01  7.7186686847311814e-01  6.3332665613107453e-01  5.0973412917886352e-01  3.9681990603455713e-01  2.9156143421865260e-01  1.9160417647511735e-01  9.4992057560292081e-02  0.0000000000000000e+00  0.0000000000000000e+00  1.1026330974757263e-01  2.2204823757063158e-01  3.3695269546047540e-01  4.5660871931975316e-01  5.8215029628787363e-01  7.1173796827023228e-01  8.3055374435764873e-01  9.2286757146949272e-01  1.0009391833475965e+00  1.0270439848217063e+00  9.9280117036440352e-01  9.6533687652184863e-01  9.5008527623068706e-01  9.4395642842654204e-01  9.4562225155806745e-01  9.5498259097383364e-01  9.7322781811848491e-01  1.0033138316324062e+00  1.0511530540769738e+00  1.1156304488652802e+00  1.1818920173410730e+00  1.2044671595165550e+00  1.1740199362429102e+00  1.0672636646908495e+00  8.8819363260790274e-01  7.2121812095435978e-01  5.7717592577510812e-01  4.4798067197931180e-01  3.2865931332007287e-01  2.1583235583711477e-01  1.0697258061247963e-01  0.0000000000000000e+00  0.0000000000000000e+00  1.2311729254767396e-01  2.4828786245238973e-01  3.7795226831516820e-01  5.1549714356898124e-01  6.6626879517408966e-01  8.2673275727697926e-01  9.7474388289543712e-01  1.0679009555977845e+00  1.1259866919123478e+00  1.1645440700724814e+00  1.1259011044017098e+00  1.0891013210004326e+00  1.0690997081640279e+00  1.0604640426295326e+00  1.0604505404027507e+00  1.0681941483805999e+00  1.0846177081724035e+00  1.1129744200738412e+00  1.1607608479554603e+00  1.2332877819445609e+00  1.2930303233783760e+00  1.3158169832794104e+00  1.2753960075009720e+00  1.1568304107787986e+00  9.6509151857919373e-01  7.8490879928130608e-01  6.2887921588984408e-01  4.8865102632223478e-01  3.5885259791690372e-01  2.3584354081060205e-01  1.1694819469235801e-01  0.0000000000000000e+00  0.0000000000000000e+00  1.3377766587035400e-01  2.6973777997973392e-01  4.1058405911875934e-01  5.6041870985353948e-01  7.2683401946211346e-01  9.1436366345662679e-01  1.0697472205000069e+00  1.1566056475772277e+00  1.2174830916581927e+00  1.2623839591436123e+00  1.2301238561924597e+00  1.1949596423564603e+00  1.1758903290216673e+00  1.1676383411679117e+00  1.1668702427676834e+00  1.1720522764739107e+00  1.1832925112117609e+00  1.2022111303519081e+00  1.2315070003633193e+00  1.2724513464494160e+00  1.3110192164977150e+00  1.3343608982580040e+00  1.2988338139911406e+00  1.1893328000453640e+00  1.0030018379205978e+00  8.2311502603476205e-01  6.6385041403205292e-01  5.1825112922714134e-01  3.8183179065384965e-01  2.5148277961116067e-01  1.2485472341484008e-01  0.0000000000000000e+00  0.0000000000000000e+00  1.4211013054664320e-01  2.8599357088567823e-01  4.3371921049314432e-01  5.8798551427530676e-01  7.5236153520084892e-01  9.3029707824716090e-01  1.1035081458173654e+00  1.2180811999775263e+00  1.2845400470996591e+00  1.3331934835401156e+00  1.3100990730721251e+00  1.2835092429665564e+00  1.2709131977610215e+00  1.2665348132261702e+00  1.2666156856515276e+00  1.2691205194862227e+00  1.2734722302402761e+00  1.2800829980080808e+00  1.2893460759254816e+00  1.2995805421275581e+00  1.3038530335384204e+00  1.2943667861627133e+00  1.2531583651986697e+00  1.1685682520868192e+00  1.0071165859335318e+00  8.3941213555344552e-01  6.8425080142704653e-01  5.3804538572137484e-01  3.9832435146235723e-01  2.6314733344502139e-01  1.3086763705995288e-01  0.0000000000000000e+00  0.0000000000000000e+00  1.4852605501788790e-01  2.9810472128931526e-01  4.4981948047694559e-01  6.0470361709152332e-01  7.6326810285507307e-01  9.2392375655801562e-01  1.0790222104661873e+00  1.2105914874804728e+00  1.3162153281635542e+00  1.3715634169034403e+00  1.3663938007592518e+00  1.3567991055767006e+00  1.3566969983834130e+00  1.3600973330331516e+00  1.3631332512157432e+00  1.3635446533128932e+00  1.3605417565683697e+00  1.3543348411194391e+00  1.3450643639388362e+00  1.3312828000479380e+00  1.3087918645301027e+00  1.2714227324740484e+00  1.2105112091481303e+00  1.1205023328441979e+00  9.9036138512600114e-01  8.4201251073451755e-01  6.9486816730108591e-01  5.5077588070879679e-01  4.0988400322873375e-01  2.7167605740407008e-01  1.3535479460831740e-01  0.0000000000000000e+00  0.0000000000000000e+00  1.5375301331688074e-01  3.0779406272130538e-01  4.6229099995482098e-01  6.1707181310668158e-01  7.7115752439534158e-01  9.2187944146233081e-01  1.0637455948973460e+00  1.1889318211853086e+00  1.2940417086429989e+00  1.3663938824607207e+00  1.3999943808868278e+00  1.4193161610311129e+00  1.4378912126895027e+00  1.4530526051871937e+00  1.4613637287182291e+00  1.4604888510295286e+00  1.4499001564730689e+00  1.4306748912008376e+00  1.4042182172390989e+00  1.3704861122181871e+00  1.3272566175459997e+00  1.2705471706957523e+00  1.1954338301916456e+00  1.0983188805353143e+00  9.7777702140865774e-01  8.4243512215262384e-01  7.0171333736351871e-01  5.5979085296345232e-01  4.1840913666492013e-01  2.7810113373037759e-01  1.3877140877075075e-01  0.0000000000000000e+00  0.0000000000000000e+00  1.5856310872576043e-01  3.1676055357162952e-01  4.7405720393746925e-01  6.2953648132127715e-01  7.8160986022460222e-01  9.2766879598591212e-01  1.0639070914963840e+00  1.1859226310733519e+00  1.2902987291817336e+00  1.3728592450686670e+00  1.4336576302768691e+00  1.4812979684900247e+00  1.5213245033198100e+00  1.5517455875637107e+00  1.5677042568584618e+00  1.5660947225611774e+00  1.5468564548832973e+00  1.5132050543506008e+00  1.4695809918886997e+00  1.4180738404573598e+00  1.3580334471383984e+00  1.2868669469912788e+00  1.2011511589006720e+00  1.0984226051759540e+00  9.7899724914506381e-01  8.4743270249997893e-01  7.0914314580098081e-01  5.6781434688266186e-01  4.2554918150746102e-01  2.8335340096737227e-01  1.4153589779480272e-01  0.0000000000000000e+00  0.0000000000000000e+00  1.6361422637034387e-01  3.2637292533823298e-01  4.8724551025982665e-01  6.4485854673383880e-01  7.9736272046221490e-01  9.4239329185242127e-01  1.0772407040830960e+00  1.1993605313293345e+00  1.3070749014342455e+00  1.3997398585941347e+00  1.4791363349651294e+00  1.5495708160830597e+00  1.6130408299671468e+00  1.6635663583618250e+00  1.6902785898195800e+00  1.6880230347067791e+00  1.6569741674938723e+00  1.6045191393930192e+00  1.5416885082901497e+00  1.4730860154801637e+00  1.3988422444358948e+00  1.3166581411852756e+00  1.2228425890238055e+00  1.1142632256167790e+00  9.9151815194497550e-01  8.5846462872361096e-01  7.1907237050519357e-01  5.7637299431104116e-01  4.3233962223939060e-01  2.8805114962377948e-01  1.4393359730828717e-01  0.0000000000000000e+00  0.0000000000000000e+00  1.6939372277717252e-01  3.3761481612308131e-01  5.0330161517854455e-01  6.6475624696574165e-01  8.1991013585236816e-01  9.6647663490722047e-01  1.1023400669175338e+00  1.2261195424452223e+00  1.3377125939792671e+00  1.4386155780536360e+00  1.5322249557337442e+00  1.6233602290015596e+00  1.7161315250211142e+00  1.7975170000576686e+00  1.8400849136021411e+00  1.8370431402049070e+00  1.7869119037043366e+00  1.7047748266335123e+00  1.6182713692651791e+00  1.5325463580351686e+00  1.4464703671852053e+00  1.3570168797076767e+00  1.2583003221971520e+00  1.1433667714035791e+00  1.0135680290874127e+00  8.7519402583599737e-01  7.3180559856591809e-01  5.8589014471128587e-01  4.3912212978767212e-01  2.9241234925121423e-01  1.4606745818545916e-01  0.0000000000000000e+00  0.0000000000000000e+00  1.7620696219582824e-01  3.5111375298115777e-01  5.2317125673727316e-01  6.9039259263813335e-01  8.5034039439202547e-01  1.0004216251796867e+00  1.1385548369889471e+00  1.2639801553212628e+00  1.3778454701457259e+00  1.4834739248309452e+00  1.5863330181403690e+00  1.6938575606014845e+00  1.8159004994871368e+00  1.9425350839222808e+00  2.0076187087429083e+00  2.0053111873900011e+00  1.9340040539532097e+00  1.8076149660355607e+00  1.6925424164645484e+00  1.5910038122890597e+00  1.4962408319195659e+00  1.4054832571832929e+00  1.3089011357137037e+00  1.1863800262069248e+00  1.0433855703553971e+00  8.9628349971235399e-01  7.4655762189086228e-01  5.9588331947263928e-01  4.4558419609748401e-01  2.9624440429371218e-01  1.4784516861109012e-01  0.0000000000000000e+00  0.0000000000000000e+00  1.8415878535230809e-01  3.6714138756519032e-01  5.4739544531950191e-01  7.2266016923902465e-01  8.8983967899356542e-01  1.0453735239391322e+00  1.1864084570631059e+00  1.3122171732410128e+00  1.4249190246837922e+00  1.5296728476803247e+00  1.6341614314777961e+00  1.7479400083163243e+00  1.8832089636992138e+00  2.0313302365267942e+00  2.1117473800641604e+00  2.1118149481006054e+00  2.0312791471873619e+00  1.8841589609687779e+00  1.7514596701534231e+00  1.6411193383546774e+00  1.5405953927803877e+00  1.4456649291732808e+00  1.3586218402161043e+00  1.2359727424356672e+00  1.0763958559257867e+00  9.1927280638022013e-01  7.6170593747488169e-01  6.0509854080532077e-01  4.5081006419591207e-01  2.9896424357668694e-01  1.4898726847252536e-01  0.0000000000000000e+00  0.0000000000000000e+00  1.9309070586387561e-01  3.8550872503033934e-01  5.7602401358271005e-01  7.6223238019395001e-01  9.4001775307302038e-01  1.1036920205448997e+00  1.2482192159426300e+00  1.3721812443430728e+00  1.4784592623392860e+00  1.5745315667538764e+00  1.6709038303952481e+00  1.7784243900718806e+00  1.9095187233524646e+00  2.0568930079758516e+00  2.1394011823513162e+00  2.1421057052421819e+00  2.0642247943238217e+00  1.9181595860548597e+00  1.7859203656294476e+00  1.6796203135878820e+00  1.5777481299989797e+00  1.4636779437126244e+00  1.3530409681580253e+00  1.2317214608972238e+00  1.0930965186015036e+00  9.4186623021883364e-01  7.7526699310036729e-01  6.1154601868938008e-01  4.5329012595533463e-01  2.9962979313752108e-01  1.4905237678533867e-01  0.0000000000000000e+00  0.0000000000000000e+00  2.0245338494487278e-01  4.0529667110470546e-01  6.0822857809223352e-01  8.0924392783183285e-01  1.0030817812339834e+00  1.1797256553978066e+00  1.3290097533189824e+00  1.4481445276520077e+00  1.5404533616581493e+00  1.6172590952916701e+00  1.6945179933013650e+00  1.7830779047096117e+00  1.8912761584802777e+00  2.0162584694416736e+00  2.0898844138746302e+00  2.0959874225151465e+00  2.0342373042001500e+00  1.9099980472981755e+00  1.7921284028096214e+00  1.6988846363583268e+00  1.6124960466871716e+00  1.4766253268914862e+00  1.3438589947706230e+00  1.2178353654955818e+00  1.0956339652407443e+00  9.6606465555528398e-01  7.8522397048878967e-01  6.1202289510343488e-01  4.5084043447016264e-01  2.9701104981975779e-01  1.4749843198788445e-01  0.0000000000000000e+00  0.0000000000000000e+00  2.1112958007321322e-01  4.2439920018709809e-01  6.4143208680716368e-01  8.6217613989180375e-01  1.0817493507109637e+00  1.2812496464781338e+00  1.4378986008343979e+00  1.5488071722334660e+00  1.6158282231606040e+00  1.6574263584764117e+00  1.7046693241804471e+00  1.7657508180684411e+00  1.8407857707869655e+00  1.9216063258101912e+00  1.9766417921136787e+00  1.9864240464822787e+00  1.9484491976253666e+00  1.8670737077049460e+00  1.7712711491702544e+00  1.6835221769494144e+00  1.6052213849759027e+00  1.4719069605979984e+00  1.3263815060882009e+00  1.1987260956867369e+00  1.0786927446177679e+00  9.5095081841142759e-01  7.7393315980220190e-01  5.9992347281800962e-01  4.4067798096978222e-01  2.8986188953536690e-01  1.4383112275791829e-01  0.0000000000000000e+00  0.0000000000000000e+00  2.1731139111082973e-01  4.3901590162833221e-01  6.6979116706742814e-01  9.1468674586996679e-01  1.1656410275991755e+00  1.3975961879488548e+00  1.5642696724950713e+00  1.6650589932886892e+00  1.7012321465271099e+00  1.6895128402821200e+00  1.6986354832754638e+00  1.7320760739974825e+00  1.7819289083950935e+00  1.8370975370835494e+00  1.8799972426915337e+00  1.8958899918033600e+00  1.8774471866803955e+00  1.8230125282749670e+00  1.7398729066581549e+00  1.6436447076879497e+00  1.5485646436943810e+00  1.4391628866530972e+00  1.2894297340234186e+00  1.1577941938234331e+00  1.0426001142539283e+00  8.9450631396452818e-01  7.3321242926082397e-01  5.7248501924577155e-01  4.2172003629579508e-01  2.7771135856602130e-01  1.3786393036907071e-01  0.0000000000000000e+00  0.0000000000000000e+00  2.1869441990133690e-01  4.4372275491889906e-01  6.8268538970365622e-01  9.4641277571357374e-01  1.2276048322634492e+00  1.4610741643203646e+00  1.6253016729940373e+00  1.7146963935633333e+00  1.7291149844707598e+00  1.6851892169390867e+00  1.6657591670844640e+00  1.6795476487202097e+00  1.7152470130417210e+00  1.7621834568737176e+00  1.8075101319377083e+00  1.8367392211883360e+00  1.8394998806056584e+00  1.8048678585468196e+00  1.7190166527876751e+00  1.6003143177368664e+00  1.4785503344980422e+00  1.3553894231361854e+00  1.2200025747429522e+00  1.0862632692593046e+00  9.6148909716405773e-01  8.2466052066953266e-01  6.7835773554866263e-01  5.3454666380326632e-01  3.9565969872956475e-01  2.6119409755429768e-01  1.2981733698221137e-01  0.0000000000000000e+00  0.0000000000000000e+00  2.1330477475618095e-01  4.3357736707313554e-01  6.6932168374194534e-01  9.3290382178473297e-01  1.2192793723480875e+00  1.4496077663618641e+00  1.6038827066810208e+00  1.6820464380776132e+00  1.6839807728538339e+00  1.6277704844558398e+00  1.5970195752686533e+00  1.6026378741990319e+00  1.6348513183984208e+00  1.6862697248167868e+00  1.7483211289308973e+00  1.8010900781857468e+00  1.8231144039065812e+00  1.8093972868924255e+00  1.7155077640384464e+00  1.5576770873219017e+00  1.4078817999356519e+00  1.2692864398099013e+00  1.1346560752523183e+00  1.0045214069886583e+00  8.7858371851783956e-01  7.5063003620992053e-01  6.2034911890636990e-01  4.9121941158369448e-01  3.6487159151713877e-01  2.4140359933358943e-01  1.2012442149154713e-01  0.0000000000000000e+00  0.0000000000000000e+00  2.0050284976668717e-01  4.0702497142825456e-01  6.2659336580583203e-01  8.6876508320676460e-01  1.1360851779513790e+00  1.3570750712191071e+00  1.5011477219741238e+00  1.5682425996189755e+00  1.5655404409324878e+00  1.5162421043313414e+00  1.4892582077169378e+00  1.4966845636638226e+00  1.5328007851526229e+00  1.5971061986570210e+00  1.6827428314742634e+00  1.7674597560409462e+00  1.8007960700775305e+00  1.7757529586884948e+00  1.6706836115309061e+00  1.4917242095501067e+00  1.3239823077768751e+00  1.1775584308073259e+00  1.0434612291876311e+00  9.1748367453620605e-01  7.9679737079288437e-01  6.7821038049158133e-01  5.6064731012087499e-01  4.4472346780270489e-01  3.3094396002316451e-01  2.1926607727141306e-01  1.0920151106612719e-01  0.0000000000000000e+00  0.0000000000000000e+00  1.8126074441838080e-01  3.6654077776714389e-01  5.5982789791574861e-01  7.6458188750231293e-01  9