<?xml version="1.0"?>
<VTKFile type="UnstructuredGrid"  version="0.1"  >
<UnstructuredGrid>
<Piece  NumberOfPoints="1089" NumberOfCells="2048">
<Points>
<DataArray  type="Float64"  NumberOfComponents="3"  format="ascii">0 0 0  0.03125 0 0  0.0625 0 0  0.09375 0 0  0.125 0 0  0.15625 0 0  0.1875 0 0  0.21875 0 0  0.25 0 0  0.28125 0 0  0.3125 0 0  0.34375 0 0  0.375 0 0  0.40625 0 0  0.4375 0 0  0.46875 0 0  0.5 0 0  0.53125 0 0  0.5625 0 0  0.59375 0 0  0.625 0 0  0.65625 0 0  0.6875 0 0  0.71875 0 0  0.75 0 0  0.78125 0 0  0.8125 0 0  0.84375 0 0  0.875 0 0  0.90625 0 0  0.9375 0 0  0.96875 0 0  1 0 0  0 0.03125 0  0.03125 0.03125 0  0.0625 0.03125 0  0.09375 0.03125 0  0.125 0.03125 0  0.15625 0.03125 0  0.1875 0.03125 0  0.21875 0.03125 0  0.25 0.03125 0  0.28125 0.03125 0  0.3125 0.03125 0  0.34375 0.03125 0  0.375 0.03125 0  0.40625 0.03125 0  0.4375 0.03125 0  0.46875 0.03125 0  0.5 0.03125 0  0.53125 0.03125 0  0.5625 0.03125 0  0.59375 0.03125 0  0.625 0.03125 0  0.65625 0.03125 0  0.6875 0.03125 0  0.71875 0.03125 0  0.75 0.03125 0  0.78125 0.03125 0  0.8125 0.03125 0  0.84375 0.03125 0  0.875 0.03125 0  0.90625 0.03125 0  0.9375 0.03125 0  0.96875 0.03125 0  1 0.03125 0  0 0.0625 0  0.03125 0.0625 0  0.0625 0.0625 0  0.09375 0.0625 0  0.125 0.0625 0  0.15625 0.0625 0  0.1875 0.0625 0  0.21875 0.0625 0  0.25 0.0625 0  0.28125 0.0625 0  0.3125 0.0625 0  0.34375 0.0625 0  0.375 0.0625 0  0.40625 0.0625 0  0.4375 0.0625 0  0.46875 0.0625 0  0.5 0.0625 0  0.53125 0.0625 0  0.5625 0.0625 0  0.59375 0.0625 0  0.625 0.0625 0  0.65625 0.0625 0  0.6875 0.0625 0  0.71875 0.0625 0  0.75 0.0625 0  0.78125 0.0625 0  0.8125 0.0625 0  0.84375 0.0625 0  0.875 0.0625 0  0.90625 0.0625 0  0.9375 0.0625 0  0.96875 0.0625 0  1 0.0625 0  0 0.09375 0  0.03125 0.09375 0  0.0625 0.09375 0  0.09375 0.09375 0  0.125 0.09375 0  0.15625 0.09375 0  0.1875 0.09375 0  0.21875 0.09375 0  0.25 0.09375 0  0.28125 0.09375 0  0.3125 0.09375 0  0.34375 0.09375 0  0.375 0.09375 0  0.40625 0.09375 0  0.4375 0.09375 0  0.46875 0.09375 0  0.5 0.09375 0  0.53125 0.09375 0  0.5625 0.09375 0  0.59375 0.09375 0  0.625 0.09375 0  0.65625 0.09375 0  0.6875 0.09375 0  0.71875 0.09375 0  0.75 0.09375 0  0.78125 0.09375 0  0.8125 0.09375 0  0.84375 0.09375 0  0.875 0.09375 0  0.90625 0.09375 0  0.9375 0.09375 0  0.96875 0.09375 0  1 0.09375 0  0 0.125 0  0.03125 0.125 0  0.0625 0.125 0  0.09375 0.125 0  0.125 0.125 0  0.15625 0.125 0  0.1875 0.125 0  0.21875 0.125 0  0.25 0.125 0  0.28125 0.125 0  0.3125 0.125 0  0.34375 0.125 0  0.375 0.125 0  0.40625 0.125 0  0.4375 0.125 0  0.46875 0.125 0  0.5 0.125 0  0.53125 0.125 0  0.5625 0.125 0  0.59375 0.125 0  0.625 0.125 0  0.65625 0.125 0  0.6875 0.125 0  0.71875 0.125 0  0.75 0.125 0  0.78125 0.125 0  0.8125 0.125 0  0.84375 0.125 0  0.875 0.125 0  0.90625 0.125 0  0.9375 0.125 0  0.96875 0.125 0  1 0.125 0  0 0.15625 0  0.03125 0.15625 0  0.0625 0.15625 0  0.09375 0.15625 0  0.125 0.15625 0  0.15625 0.15625 0  0.1875 0.15625 0  0.21875 0.15625 0  0.25 0.15625 0  0.28125 0.15625 0  0.3125 0.15625 0  0.34375 0.15625 0  0.375 0.15625 0  0.40625 0.15625 0  0.4375 0.15625 0  0.46875 0.15625 0  0.5 0.15625 0  0.53125 0.15625 0  0.5625 0.15625 0  0.59375 0.15625 0  0.625 0.15625 0  0.65625 0.15625 0  0.6875 0.15625 0  0.71875 0.15625 0  0.75 0.15625 0  0.78125 0.15625 0  0.8125 0.15625 0  0.84375 0.15625 0  0.875 0.15625 0  0.90625 0.15625 0  0.9375 0.15625 0  0.96875 0.15625 0  1 0.15625 0  0 0.1875 0  0.03125 0.1875 0  0.0625 0.1875 0  0.09375 0.1875 0  0.125 0.1875 0  0.15625 0.1875 0  0.1875 0.1875 0  0.21875 0.1875 0  0.25 0.1875 0  0.28125 0.1875 0  0.3125 0.1875 0  0.34375 0.1875 0  0.375 0.1875 0  0.40625 0.1875 0  0.4375 0.1875 0  0.46875 0.1875 0  0.5 0.1875 0  0.53125 0.1875 0  0.5625 0.1875 0  0.59375 0.1875 0  0.625 0.1875 0  0.65625 0.1875 0  0.6875 0.1875 0  0.71875 0.1875 0  0.75 0.1875 0  0.78125 0.1875 0  0.8125 0.1875 0  0.84375 0.1875 0  0.875 0.1875 0  0.90625 0.1875 0  0.9375 0.1875 0  0.96875 0.1875 0  1 0.1875 0  0 0.21875 0  0.03125 0.21875 0  0.0625 0.21875 0  0.09375 0.21875 0  0.125 0.21875 0  0.15625 0.21875 0  0.1875 0.21875 0  0.21875 0.21875 0  0.25 0.21875 0  0.28125 0.21875 0  0.3125 0.21875 0  0.34375 0.21875 0  0.375 0.21875 0  0.40625 0.21875 0  0.4375 0.21875 0  0.46875 0.21875 0  0.5 0.21875 0  0.53125 0.21875 0  0.5625 0.21875 0  0.59375 0.21875 0  0.625 0.21875 0  0.65625 0.21875 0  0.6875 0.21875 0  0.71875 0.21875 0  0.75 0.21875 0  0.78125 0.21875 0  0.8125 0.21875 0  0.84375 0.21875 0  0.875 0.21875 0  0.90625 0.21875 0  0.9375 0.21875 0  0.96875 0.21875 0  1 0.21875 0  0 0.25 0  0.03125 0.25 0  0.0625 0.25 0  0.09375 0.25 0  0.125 0.25 0  0.15625 0.25 0  0.1875 0.25 0  0.21875 0.25 0  0.25 0.25 0  0.28125 0.25 0  0.3125 0.25 0  0.34375 0.25 0  0.375 0.25 0  0.40625 0.25 0  0.4375 0.25 0  0.46875 0.25 0  0.5 0.25 0  0.53125 0.25 0  0.5625 0.25 0  0.59375 0.25 0  0.625 0.25 0  0.65625 0.25 0  0.6875 0.25 0  0.71875 0.25 0  0.75 0.25 0  0.78125 0.25 0  0.8125 0.25 0  0.84375 0.25 0  0.875 0.25 0  0.90625 0.25 0  0.9375 0.25 0  0.96875 0.25 0  1 0.25 0  0 0.28125 0  0.03125 0.28125 0  0.0625 0.28125 0  0.09375 0.28125 0  0.125 0.28125 0  0.15625 0.28125 0  0.1875 0.28125 0  0.21875 0.28125 0  0.25 0.28125 0  0.28125 0.28125 0  0.3125 0.28125 0  0.34375 0.28125 0  0.375 0.28125 0  0.40625 0.28125 0  0.4375 0.28125 0  0.46875 0.28125 0  0.5 0.28125 0  0.53125 0.28125 0  0.5625 0.28125 0  0.59375 0.28125 0  0.625 0.28125 0  0.65625 0.28125 0  0.6875 0.28125 0  0.71875 0.28125 0  0.75 0.28125 0  0.78125 0.28125 0  0.8125 0.28125 0  0.84375 0.28125 0  0.875 0.28125 0  0.90625 0.28125 0  0.9375 0.28125 0  0.96875 0.28125 0  1 0.28125 0  0 0.3125 0  0.03125 0.3125 0  0.0625 0.3125 0  0.09375 0.3125 0  0.125 0.3125 0  0.15625 0.3125 0  0.1875 0.3125 0  0.21875 0.3125 0  0.25 0.3125 0  0.28125 0.3125 0  0.3125 0.3125 0  0.34375 0.3125 0  0.375 0.3125 0  0.40625 0.3125 0  0.4375 0.3125 0  0.46875 0.3125 0  0.5 0.3125 0  0.53125 0.3125 0  0.5625 0.3125 0  0.59375 0.3125 0  0.625 0.3125 0  0.65625 0.3125 0  0.6875 0.3125 0  0.71875 0.3125 0  0.75 0.3125 0  0.78125 0.3125 0  0.8125 0.3125 0  0.84375 0.3125 0  0.875 0.3125 0  0.90625 0.3125 0  0.9375 0.3125 0  0.96875 0.3125 0  1 0.3125 0  0 0.34375 0  0.03125 0.34375 0  0.0625 0.34375 0  0.09375 0.34375 0  0.125 0.34375 0  0.15625 0.34375 0  0.1875 0.34375 0  0.21875 0.34375 0  0.25 0.34375 0  0.28125 0.34375 0  0.3125 0.34375 0  0.34375 0.34375 0  0.375 0.34375 0  0.40625 0.34375 0  0.4375 0.34375 0  0.46875 0.34375 0  0.5 0.34375 0  0.53125 0.34375 0  0.5625 0.34375 0  0.59375 0.34375 0  0.625 0.34375 0  0.65625 0.34375 0  0.6875 0.34375 0  0.71875 0.34375 0  0.75 0.34375 0  0.78125 0.34375 0  0.8125 0.34375 0  0.84375 0.34375 0  0.875 0.34375 0  0.90625 0.34375 0  0.9375 0.34375 0  0.96875 0.34375 0  1 0.34375 0  0 0.375 0  0.03125 0.375 0  0.0625 0.375 0  0.09375 0.375 0  0.125 0.375 0  0.15625 0.375 0  0.1875 0.375 0  0.21875 0.375 0  0.25 0.375 0  0.28125 0.375 0  0.3125 0.375 0  0.34375 0.375 0  0.375 0.375 0  0.40625 0.375 0  0.4375 0.375 0  0.46875 0.375 0  0.5 0.375 0  0.53125 0.375 0  0.5625 0.375 0  0.59375 0.375 0  0.625 0.375 0  0.65625 0.375 0  0.6875 0.375 0  0.71875 0.375 0  0.75 0.375 0  0.78125 0.375 0  0.8125 0.375 0  0.84375 0.375 0  0.875 0.375 0  0.90625 0.375 0  0.9375 0.375 0  0.96875 0.375 0  1 0.375 0  0 0.40625 0  0.03125 0.40625 0  0.0625 0.40625 0  0.09375 0.40625 0  0.125 0.40625 0  0.15625 0.40625 0  0.1875 0.40625 0  0.21875 0.40625 0  0.25 0.40625 0  0.28125 0.40625 0  0.3125 0.40625 0  0.34375 0.40625 0  0.375 0.40625 0  0.40625 0.40625 0  0.4375 0.40625 0  0.46875 0.40625 0  0.5 0.40625 0  0.53125 0.40625 0  0.5625 0.40625 0  0.59375 0.40625 0  0.625 0.40625 0  0.65625 0.40625 0  0.6875 0.40625 0  0.71875 0.40625 0  0.75 0.40625 0  0.78125 0.40625 0  0.8125 0.40625 0  0.84375 0.40625 0  0.875 0.40625 0  0.90625 0.40625 0  0.9375 0.40625 0  0.96875 0.40625 0  1 0.40625 0  0 0.4375 0  0.03125 0.4375 0  0.0625 0.4375 0  0.09375 0.4375 0  0.125 0.4375 0  0.15625 0.4375 0  0.1875 0.4375 0  0.21875 0.4375 0  0.25 0.4375 0  0.28125 0.4375 0  0.3125 0.4375 0  0.34375 0.4375 0  0.375 0.4375 0  0.40625 0.4375 0  0.4375 0.4375 0  0.46875 0.4375 0  0.5 0.4375 0  0.53125 0.4375 0  0.5625 0.4375 0  0.59375 0.4375 0  0.625 0.4375 0  0.65625 0.4375 0  0.6875 0.4375 0  0.71875 0.4375 0  0.75 0.4375 0  0.78125 0.4375 0  0.8125 0.4375 0  0.84375 0.4375 0  0.875 0.4375 0  0.90625 0.4375 0  0.9375 0.4375 0  0.96875 0.4375 0  1 0.4375 0  0 0.46875 0  0.03125 0.46875 0  0.0625 0.46875 0  0.09375 0.46875 0  0.125 0.46875 0  0.15625 0.46875 0  0.1875 0.46875 0  0.21875 0.46875 0  0.25 0.46875 0  0.28125 0.46875 0  0.3125 0.46875 0  0.34375 0.46875 0  0.375 0.46875 0  0.40625 0.46875 0  0.4375 0.46875 0  0.46875 0.46875 0  0.5 0.46875 0  0.53125 0.46875 0  0.5625 0.46875 0  0.59375 0.46875 0  0.625 0.46875 0  0.65625 0.46875 0  0.6875 0.46875 0  0.71875 0.46875 0  0.75 0.46875 0  0.78125 0.46875 0  0.8125 0.46875 0  0.84375 0.46875 0  0.875 0.46875 0  0.90625 0.46875 0  0.9375 0.46875 0  0.96875 0.46875 0  1 0.46875 0  0 0.5 0  0.03125 0.5 0  0.0625 0.5 0  0.09375 0.5 0  0.125 0.5 0  0.15625 0.5 0  0.1875 0.5 0  0.21875 0.5 0  0.25 0.5 0  0.28125 0.5 0  0.3125 0.5 0  0.34375 0.5 0  0.375 0.5 0  0.40625 0.5 0  0.4375 0.5 0  0.46875 0.5 0  0.5 0.5 0  0.53125 0.5 0  0.5625 0.5 0  0.59375 0.5 0  0.625 0.5 0  0.65625 0.5 0  0.6875 0.5 0  0.71875 0.5 0  0.75 0.5 0  0.78125 0.5 0  0.8125 0.5 0  0.84375 0.5 0  0.875 0.5 0  0.90625 0.5 0  0.9375 0.5 0  0.96875 0.5 0  1 0.5 0  0 0.53125 0  0.03125 0.53125 0  0.0625 0.53125 0  0.09375 0.53125 0  0.125 0.53125 0  0.15625 0.53125 0  0.1875 0.53125 0  0.21875 0.53125 0  0.25 0.53125 0  0.28125 0.53125 0  0.3125 0.53125 0  0.34375 0.53125 0  0.375 0.53125 0  0.40625 0.53125 0  0.4375 0.53125 0  0.46875 0.53125 0  0.5 0.53125 0  0.53125 0.53125 0  0.5625 0.53125 0  0.59375 0.53125 0  0.625 0.53125 0  0.65625 0.53125 0  0.6875 0.53125 0  0.71875 0.53125 0  0.75 0.53125 0  0.78125 0.531
[...]
<PointData  Scalars="u"> 
<DataArray  type="Float64"  Name="u"  format="ascii">0.0000000000000000e+00  0.0000000000000000e+00  0.0000000000000000e+00  0.0000000000000000e+00  0.0000000000000000e+00  0.0000000000000000e+00  0.0000000000000000e+00  0.0000000000000000e+00  0.0000000000000000e+00  0.0000000000000000e+00  0.0000000000000000e+00  0.0000000000000000e+00  0.0000000000000000e+00  0.0000000000000000e+00  0.0000000000000000e+00  0.0000000000000000e+00  0.0000000000000000e+00  0.0000000000000000e+00  0.0000000000000000e+00  0.0000000000000000e+00  0.0000000000000000e+00  0.0000000000000000e+00  0.0000000000000000e+00  0.0000000000000000e+00  0.0000000000000000e+00  0.0000000000000000e+00  0.0000000000000000e+00  0.0000000000000000e+00  0.0000000000000000e+00  0.0000000000000000e+00  0.0000000000000000e+00  0.0000000000000000e+00  0.0000000000000000e+00  0.0000000000000000e+00  1.2171187223417368e-02  2.4294200311296369e-02  3.6289367597789869e-02  4.8019539027035957e-02  5.9271556602804858e-02  6.9756330863717006e-02  7.9137823624182924e-02  8.7094089614636522e-02  9.3401207788219698e-02  9.8025528411970431e-02  1.0117929175928718e-01  1.0326573431342878e-01  1.0474364448101131e-01  1.0601755297912104e-01  1.0738403396183820e-01  1.0901340722417414e-01  1.1093871281405786e-01  1.1303542031516842e-01  1.1499234257292715e-01  1.1629367257694589e-01  1.1624887960833076e-01  1.1410488826666938e-01  1.0924320635767230e-01  1.0145077436214012e-01  9.1108800183706359e-02  7.9008697816138049e-02  6.5961395559386973e-02  5.2571586456352119e-02  3.9193974040752345e-02  2.5978682904148682e-02  1.2937211282557076e-02  0.0000000000000000e+00  0.0000000000000000e+00  2.4401989021213544e-02  4.8737984740140836e-02  7.2876422022323264e-02  9.6561304107888352e-02  1.1936554700181772e-01  1.4068083528025904e-01  1.5977261123519965e-01  1.7591168356596595e-01  1.8855716051944255e-01  1.9758641874145511e-01  2.0348043641783023e-01  2.0718361437725710e-01  2.0972595218675982e-01  2.1197241334666850e-01  2.1453600731213240e-01  2.1776925832518035e-01  2.2175863462211673e-01  2.2628336244187358e-01  2.3073714346031229e-01  2.3405538509677401e-01  2.3474077484341863e-01  2.3108566040139003e-01  2.2157878522510099e-01  2.0560435190858559e-01  1.8411124508428950e-01  1.5907720566373057e-01  1.3235377601248535e-01  1.0519669783934102e-01  7.8271140134343428e-02  5.1811465747340468e-02  2.5782444942206148e-02  0.0000000000000000e+00  0.0000000000000000e+00  3.6721047054642360e-02  7.3423139853777894e-02  1.0998403199731262e-01  1.4607524542965344e-01  1.8106457800490469e-01  2.1396704835288066e-01  2.4351472692444931e-01  2.6838493963479754e-01  2.8748758479564568e-01  3.0042592851974265e-01  3.0809334369897767e-01  3.1235888135806117e-01  3.1508021273045911e-01  3.1767441315459943e-01  3.2108279021507774e-01  3.2584755471574450e-01  3.3215024910955387e-01  3.3975086614059896e-01  3.4781723676590176e-01  3.5470415393271587e-01  3.5787635149065289e-01  3.5425476550680735e-01  3.4072754510476938e-01  3.1560411137960315e-01  2.8094269436473468e-01  2.4107285173536033e-01  1.9936544672423598e-01  1.5772762222724898e-01  1.1697752092570607e-01  7.7272455974887133e-02  3.8408209566602743e-02  0.0000000000000000e+00  0.0000000000000000e+00  4.9093729334513961e-02  9.8318859645165763e-02  1.4766872822913418e-01  1.9683977483579154e-01  2.4504176948040515e-01  2.9083909433085375e-01  3.3219638518984973e-01  3.6690376550628834e-01  3.9285591467307091e-01  4.0878454428704164e-01  4.1631637382753373e-01  4.1924313418944958e-01  4.2068976530883828e-01  4.2266840518375648e-01  4.2637714637257357e-01  4.3251248773185269e-01  4.4141303268282978e-01  4.5298889112275659e-01  4.6639810985502694e-01  4.7948213498153902e-01  4.8830656455220339e-01  4.8789125550688012e-01  4.7205083458451258e-01  4.3568486831587117e-01  3.8345188891453641e-01  3.2528605966520813e-01  2.6659923417393222e-01  2.0958369901741211e-01  1.5478488706921720e-01  1.0198266419882245e-01  5.0619824772394073e-02  0.0000000000000000e+00  0.0000000000000000e+00  6.1383866393832504e-02  1.2318893376776455e-01  1.8568787412995053e-01  2.4879249164166398e-01  3.1171087842635137e-01  3.7250474198516270e-01  4.2793626242204991e-01  4.7461792300426314e-01  5.0868513783726899e-01  5.2593576912538609e-01  5.2947236069846126e-01  5.2786264898279822e-01  5.2596199627828344e-01  5.2608981622251627e-01  5.2939513046644160e-01  5.3658903190400098e-01  5.4823998817718311e-01  5.6473166223121674e-01  5.8577211827291464e-01  6.0913543989107033e-01  6.2873520123015703e-01  6.3781857757512650e-01  6.2479567560787486e-01  5.7246018920144426e-01  4.9258738237898769e-01  4.1056486677753506e-01  3.3256928972973537e-01  2.5951469214532202e-01  1.9079290835345283e-01  1.2537410760730291e-01  6.2144640209978314e-02  0.0000000000000000e+00  0.0000000000000000e+00  7.3317205797126014e-02  1.4749762182324033e-01  2.2331298227491414e-01  3.0123592859601395e-01  3.8091365982865721e-01  4.6004889083202327e-01  5.3303577779618616e-01  5.9561858436274762e-01  6.4200836043936982e-01  6.5740937706221814e-01  6.4826593467601779e-01  6.3714520423936571e-01  6.2948254861106878e-01  6.2655167543168300e-01  6.2872646280233346e-01  6.3644156235110572e-01  6.5054136253406769e-01  6.7237710034451970e-01  7.0346434411446901e-01  7.4342026350643853e-01  7.8077436692348567e-01  7.9986514622067506e-01  7.9566640817690815e-01  7.2672305941438620e-01  6.0484202768211459e-01  4.9254568406767879e-01  3.9412651727369663e-01  3.0548203297013732e-01  2.2374353605885489e-01  1.4672488281256293e-01  7.2653832925237319e-02  0.0000000000000000e+00  0.0000000000000000e+00  8.4467390332427089e-02  1.7033857623417803e-01  2.5910295673031081e-01  3.5232726051682700e-01  4.5121836771413010e-01  5.5447000715631667e-01  6.4941793863762609e-01  7.2253806629682316e-01  7.8481579479516783e-01  8.0307622239371634e-01  7.6974311250086336e-01  7.4348394395277373e-01  7.2864243196271550e-01  7.2219194379789775e-01  7.2277288408755669e-01  7.3019739697396668e-01  7.4549455323974989e-01  7.7133576091274847e-01  8.1311509616577093e-01  8.7020546579538205e-01  9.3004876516700030e-01  9.5316470970292499e-01  9.3176880675881146e-01  8.4548911854493958e-01  6.9752528584126117e-01  5.6156264718067483e-01  4.4654825585982710e-01  3.4497980694614050e-01  2.5226002840319633e-01  1.6529929273607827e-01  8.1825379640298332e-02  0.0000000000000000e+00  0.0000000000000000e+00  9.4307420420702712e-02  1.9048494796483770e-01  2.9076346794476332e-01  3.9825594544561854e-01  5.1789169827099268e-01  6.4691928906895191e-01  7.6630946923601628e-01  8.3911263800848579e-01  8.8293389714444948e-01  9.1150336960573242e-01  8.7383861327711687e-01  8.3907185398993989e-01  8.1987899230411465e-01  8.1115053922309255e-01  8.1028144404508562e-01  8.1641541575776977e-01  8.3034753726760691e-01  8.5500648885992159e-01  8.9716997089035722e-01  9.6185916124767101e-01  1.0165391157036987e+00  1.0405065276115941e+00  1.0111011033262147e+00  9.1531067801566512e-01  7.5719020038032669e-01  6.1068112238102545e-01  4.8624113024005894e-01  3.7611014573947249e-01  2.7532869252576658e-01  1.8057196833981601e-01  8.9434322946321837e-02  0.0000000000000000e+00  0.0000000000000000e+00  1.0237980855674089e-01  2.0675041484663487e-01  3.1558227665296640e-01  4.3262481517948476e-01  5.6478993302031177e-01  7.1644717303598260e-01  8.4119952920818331e-01  9.0745598332918198e-01  9.5288176683296189e-01  9.8630280903089029e-01  9.5365725578203064e-01  9.1987870128530158e-01  9.0120200976137355e-01  8.9265826115824232e-01  8.9113671757223023e-01  8.9520475511142228e-01  9.0494575378882125e-01  9.2184683482022922e-01  9.4844175025351496e-01  9.8614405189022203e-01  1.0230443358496075e+00  1.0483383606794772e+00  1.0240154226427947e+00  9.3693238501350018e-01  7.8430115562377911e-01  6.3882563244917523e-01  5.1236639023378139e-01  3.9838460768846606e-01  2.9268983396875231e-01  1.9241341608444357e-01  9.5427225979884567e-02  0.0000000000000000e+00  0.0000000000000000e+00  1.0856589091083632e-01  2.1878047869191616e-01  3.3257401884349536e-01  4.5247556543725981e-01  5.8185807550799107e-01  7.2411052765222039e-01  8.6361057505013727e-01  9.5332701459348745e-01  1.0027628651320699e+00  1.0386503012757169e+00  1.0133156984964009e+00  9.8644997268017476e-01  9.7300307353630755e-01  9.6760274830157089e-01  9.6679305685386319e-01  9.6871812500233068e-01  9.7286194856648622e-01  9.7963531501711976e-01  9.8950869452149637e-01  1.0012294497309173e+00  1.0090263982150052e+00  1.0064200989289358e+00  9.7792703351291799e-01  9.1342254101859566e-01  7.8322350146502695e-01  6.4899425151625523e-01  5.2672099576824194e-01  4.1284323026526859e-01  3.0493528740291542e-01  2.0114379610614999e-01  9.9944631326861280e-02  0.0000000000000000e+00  0.0000000000000000e+00  1.1320311962165094e-01  2.2744712630403216e-01  3.4382047556714157e-01  4.6340653295918016e-01  5.8689116150101006e-01  7.1319418564090709e-01  8.3597916891405433e-01  9.3981343956404584e-01  1.0228290060325249e+00  1.0636753347440600e+00  1.0532112875720201e+00  1.0404931130170445e+00  1.0374099266644827e+00  1.0384657097653374e+00  1.0401544380982188e+00  1.0404457844360882e+00  1.0386340702977190e+00  1.0349229213959852e+00  1.0295048478661415e+00  1.0212499432331736e+00  1.0066846090655812e+00  9.8063859112200202e-01  9.3570694058782922e-01  8.6708514482901899e-01  7.6491445271246861e-01  6.4811059994647502e-01  5.3330389132275080e-01  4.2175200431341520e-01  3.1333556752463881e-01  2.0744292376558632e-01  1.0328285879632784e-01  0.0000000000000000e+00  0.0000000000000000e+00  1.1689051126238000e-01  2.3417956537273898e-01  3.5217717325748038e-01  4.7092545114610063e-01  5.8980143864976753e-01  7.0674624835885236e-01  8.1725260550264045e-01  9.1474479557531430e-01  9.9645802341986467e-01  1.0513225870895273e+00  1.0739914986313714e+00  1.0857822838688445e+00  1.0983681999459964e+00  1.1092718092807485e+00  1.1154299942094654e+00  1.1147768140478151e+00  1.1068280230302172e+00  1.0925014912847040e+00  1.0730238071258416e+00  1.0484023497201536e+00  1.0167940368864214e+00  9.7484443706353452e-01  9.1834903412852065e-01  8.4417378780689956e-01  7.5094033770320068e-01  6.4595416404785477e-01  5.3714728765658415e-01  4.2787862888724376e-01  3.1944262797835493e-01  2.1214714494888637e-01  1.0580858879801373e-01  0.0000000000000000e+00  0.0000000000000000e+00  1.2026119356578151e-01  2.4037666779325784e-01  3.6006408058477085e-01  4.7872797245259124e-01  5.9521014890634116e-01  7.0748026320524182e-01  8.1246144407342447e-01  9.0652367791274968e-01  9.8683289208744385e-01  1.0497894202622418e+00  1.0954063527870084e+00  1.1311374269898353e+00  1.1617592562755308e+00  1.1855093889624804e+00  1.1981656801067599e+00  1.1970300107236627e+00  1.1820167388781224e+00  1.1558567743796304e+00  1.1223448535156140e+00  1.0832556854389093e+00  1.0380255935521916e+00  9.8443340528515322e-01  9.1952795001515242e-01  8.4113844110596125e-01  7.4942746317143916e-01  6.4817634956756565e-01  5.4186336488139630e-01  4.3346017022804156e-01  3.2459901010887898e-01  2.1600843027096459e-01  1.0785809093400142e-01  0.0000000000000000e+00  0.0000000000000000e+00  1.2385350738251297e-01  2.4715975261834122e-01  3.6922488063442349e-01  4.8906859249344314e-01  6.0530673574219940e-01  7.1610669687216444e-01  8.1931719453136298e-01  9.1288916806924258e-01  9.9546765518377156e-01  1.0665296346542674e+00  1.1276193063942994e+00  1.1824814952233613e+00  1.2328912558983351e+00  1.2737151443819843e+00  1.2955645595342220e+00  1.2940060995603857e+00  1.2691498988807564e+00  1.2273096044232203e+00  1.1779516928331188e+00  1.1249442780423731e+00  1.0683165396405543e+00  1.0060374497718976e+00  9.3487860264495160e-01  8.5206363694981102e-01  7.5800752963136731e-01  6.5590421294407819e-01  5.4900348791683240e-01  4.3973648540842092e-01  3.2964221069436717e-01  2.1952416858103455e-01  1.0965990713971495e-01  0.0000000000000000e+00  0.0000000000000000e+00  1.2806948701312285e-01  2.5533974137089654e-01  3.8084865344988678e-01  5.0334958170544708e-01  6.2127566068676476e-01  7.3285808350024717e-01  8.3644391966645182e-01  9.3096666892440139e-01  1.0164091436265601e+00  1.0940906650518980e+00  1.1669638711456483e+00  1.2392577554781301e+00  1.3146934222794751e+00  1.3820797535795157e+00  1.4176021392959819e+00  1.4154792553453792e+00  1.3743621874980232e+00  1.3072398138711827e+00  1.2380499838585455e+00  1.1710129099811657e+00  1.1049690799623302e+00  1.0371992321315566e+00  9.6252519375800227e-01  8.7480755378659858e-01  7.7512557261905246e-01  6.6882147729744101e-01  5.5880488439887233e-01  4.4704931954960647e-01  3.3484791790846158e-01  2.2286917912759324e-01  1.1129610321906984e-01  0.0000000000000000e+00  0.0000000000000000e+00  1.3317038250536503e-01  2.6545278588892179e-01  3.9574208527617255e-01  5.2256064070487507e-01  6.4403818675769298e-01  7.5814808703558667e-01  8.6326168743613529e-01  9.5883143095132595e-01  1.0458953043833292e+00  1.1273298555398912e+00  1.2078735966323892e+00  1.2940526061543214e+00  1.3946874486018972e+00  1.5014288747122495e+00  1.5565273311859587e+00  1.5551516023633503e+00  1.4958543552500001e+00  1.3905106599837103e+00  1.2970471784868389e+00  1.2169873968574756e+00  1.1441549297269937e+00  1.0760205692864637e+00  1.0039198662906395e+00  9.1013695925772087e-01  7.9937794117998140e-01  6.8585143001945137e-01  5.7064176887860962e-01  4.5501566518324787e-01  3.3996704868330502e-01  2.2588904854129471e-01  1.1269233319128814e-01  0.0000000000000000e+00  0.0000000000000000e+00  1.3926465520223760e-01  2.7776815956677947e-01  4.1442239478822213e-01  5.4753716122109786e-01  6.7469828586714453e-01  7.9306156088020341e-01  9.0033616373448389e-01  9.9599145015124935e-01  1.0818785063207506e+00  1.1624285720842846e+00  1.2442715272191478e+00  1.3357655375388091e+00  1.4478009986096467e+00  1.5732202873865337e+00  1.6416893560061185e+00  1.6424788984693381e+00  1.5753695883702961e+00  1.4522937928481026e+00  1.3439514629615892e+00  1.2568241365143145e+00  1.1796068736529839e+00  1.1084577561095581e+00  1.0453446912224018e+00  9.5194580819366936e-01  8.2700760825350450e-01  7.0502748213089406e-01  5.8323072621418226e-01  4.6263520494484628e-01  3.4426422473520368e-01  2.2811432315687930e-01  1.1362343589498732e-01  0.0000000000000000e+00  0.0000000000000000e+00  1.4625646541553991e-01  2.9220331759190532e-01  4.3705123769497634e-01  5.7901635226153481e-01  7.1483889131070677e-01  8.3986329809403504e-01  9.4992281638797404e-01  1.0438849239293273e+00  1.1242314045802095e+00  1.1973597535650495e+00  1.2723031432970440e+00  1.3584997729792188e+00  1.4670083021281792e+00  1.5918493327055594e+00  1.6621998747657238e+00  1.6653680495955128e+00  1.6007222659033957e+00  1.4788067428977965e+00  1.3712055133781345e+00  1.2880520653651506e+00  1.2101355855999374e+00  1.1226658864546057e+00  1.0392630388615778e+00  9.4740411648575029e-01  8.4117608307099234e-01  7.2459088289360662e-01  5.9502438158135362e-01  4.6830355089520553e-01  3.4651324907205877e-01  2.2877994341800117e-01  1.1373158028469670e-01  0.0000000000000000e+00  0.0000000000000000e+00  1.5373620611454306e-01  3.0809328421031917e-01  4.6310578962962046e-01  6.1737377993368159e-01  7.6669811612978467e-01  9.0270569646888132e-01  1.0167912331430813e+00  1.1066398242716697e+00  1.1750831097511951e+00  1.2318070712646547e+00  1.2905326953575984e+00  1.3606188514978148e+00  1.4494726584895001e+00  1.5549692630377989e+00  1.6176965248360780e+00  1.6238959985931933e+00  1.5734019851713070e+00  1.4706651023634956e+00  1.3757757437722506e+00  1.3042954210607578e+00  1.2402992048538246e+00  1.1339985313210099e+00  1.0314736325475882e+00  9.3571977309794785e-01  8.4406091991816701e-01  7.4657994733644562e-01  6.0447124950981990e-01  4.6936860735683517e-01  3.4490782727498115e-01  2.2687525003781664e-01  1.1257388667925279e-01  0.0000000000000000e+00  0.0000000000000000e+00  1.6082401210297015e-01  3.2378997120941910e-01  4.9062109962439154e-01  6.6166477479586561e-01  8.3313530432012928e-01  9.8895453179277915e-01  1.1095160646568576e+00  1.1924585390580518e+00  1.2392804471993650e+00  1.2658405662349150e+00  1.2990212711081564e+00  1.3457444744291192e+00  1.4061168272224072e+00  1.4732596376058926e+00  1.5198915454482931e+00  1.5293369216867843e+00  1.4995978006094013e+00  1.4343882232157703e+00  1.3588192088425506e+00  1.2922169693746621e+00  1.2354820227019883e+00  1.1316257006438073e+00  1.0180598910707086e+00  9.2097547250838607e-01  8.3120277944973120e-01  7.3519802483780239e-01  5.9624689900420247e-01  4.6017004101430325e-01  3.3710215049009684e-01  2.2136645611530881e-01  1.0974496705203197e-01  0.0000000000000000e+00  0.0000000000000000e+00  1.6605289964313930e-01  3.3620142624905580e-01  5.1484236661947680e-01  7.0683419466130060e-01  9.0567239756829798e-01  1.0899845577556575e+00  1.2195640397023144e+00  1.2941079719074071e+00  1.3145672770887757e+00  1.2951524486378538e+00  1.2957626736934245e+00  1.3190460425915040e+00  1.3579809921009725e+00  1.4030472242387582e+00  1.4392148542371506e+00  1.4539751088320938e+00  1.4411769872867322e+00  1.3994027607555435e+00  1.3348273151661987e+00  1.2607715762611478e+00  1.1893474589242747e+00  1.1066207261943004e+00  9.8936483969300681e-01  8.8871485061530420e-01  8.0302885364476706e-01  6.8878958199111040e-01  5.6325601085036514e-01  4.3836015583837534e-01  3.2220072244836806e-01  2.1187447903447940e-01  1.0509757941726051e-01  0.0000000000000000e+00  0.0000000000000000e+00  1.6751790867146255e-01  3.4081086889629841e-01  5.2683147636847139e-01  7.3553463569254951e-01  9.6114976073779557e-01  1.1470580898135445e+00  1.2749370757899825e+00  1.3401074194122122e+00  1.3422495415600668e+00  1.2954138061155831e+00  1.2718007750804414e+00  1.2785730531790076e+00  1.3056445528767160e+00  1.3438135747914761e+00  1.3821892154920488e+00  1.4085149113543332e+00  1.4140685643032003e+00  1.3894264526908164e+00  1.3223118517039933e+00  1.2284832947601596e+00  1.1336280350401258e+00  1.0387639643157014e+00  9.3400334030465060e-01  8.3125293351098140e-01  7.3675758336507668e-01  6.3192424894890231e-01  5.1893330800976545e-01  4.0818093685823703e-01  3.0168730298779833e-01  1.9895665641889104e-01  9.8826036061314140e-02  0.0000000000000000e+00  0.0000000000000000e+00  1.6357198438210144e-01  3.3345961943281016e-01  5.1740027855581872e-01  7.2669176746206365e-01  9.5755905788709783e-01  1.1414025703179560e+00  1.2612634192097565e+00  1.3173307086094588e+00  1.3092819643821778e+00  1.2524127569885113e+00  1.2195492407572035e+00  1.2197184938038916e+00  1.2441245178294573e+00  1.2864067116245343e+00  1.3394246544135220e+00  1.3861985916540605e+00  1.4083516475459545e+00  1.4018054224897356e+00  1.3274253886535334e+00  1.1990842293629507e+00  1.0795041344951599e+00  9.7089403898045101e-01  8.6648279726481459e-01  7.6644813965222014e-01  6.7033819285204799e-01  5.7258356608010730e-01  4.7283013336693192e-01  3.7404777979786635e-01  2.7759950882798728e-01  1.8354568097885485e-01  9.1298190254556516e-02  0.0000000000000000e+00  0.0000000000000000e+00  1.5368197802130584e-01  3.1284262321515555e-01  4.8391803648826653e-01  6.7571181430663696e-01  8.9108101344073731e-01  1.0678648262379331e+00  1.1797764190510496e+00  1.2269932029886399e+00  1.2156073810129244e+00  1.1654315673992715e+00  1.1363863828322356e+00  1.1385433678023977e+00  1.1666371101146946e+00  1.2203253202424695e+00  1.2939608023574156e+00  1.3685586955990048e+00  1.4002931168077808e+00  1.3834039350197105e+00  1.2988714966562049e+00  1.1516671675554810e+00  1.0159956355318274e+00  9.0008598825052699e-01  7.9558392406623546e-01  6.9850651385493712e-01  6.0619097813128220e-01  5.1572957318924473e-01  4.2611023894809003e-01  3.3781973885410599e-01  2.5126790322659842e-01  1.6641461716035447e-01  8.2860344708548694e-02  0.0000000000000000e+00  0.0000000000000000e+00  1.3866566384539289e-01  2.8105699740885332e-01  4.3093795211010960e-01  5.9171766205388177e-01  7