<?xml version="1.0"?>
<VTKFile type="UnstructuredGrid"  version="0.1"  >
<UnstructuredGrid>
<Piece  NumberOfPoints="1089" NumberOfCells="2048">
<Points>
<DataArray  type="Float64"  NumberOfComponents="3"  format="ascii">0 0 0  0.03125 0 0  0.0625 0 0  0.09375 0 0  0.125 0 0  0.15625 0 0  0.1875 0 0  0.21875 0 0  0.25 0 0  0.28125 0 0  0.3125 0 0  0.34375 0 0  0.375 0 0  0.40625 0 0  0.4375 0 0  0.46875 0 0  0.5 0 0  0.53125 0 0  0.5625 0 0  0.59375 0 0  0.625 0 0  0.65625 0 0  0.6875 0 0  0.71875 0 0  0.75 0 0  0.78125 0 0  0.8125 0 0  0.84375 0 0  0.875 0 0  0.90625 0 0  0.9375 0 0  0.96875 0 0  1 0 0  0 0.03125 0  0.03125 0.03125 0  0.0625 0.03125 0  0.09375 0.03125 0  0.125 0.03125 0  0.15625 0.03125 0  0.1875 0.03125 0  0.21875 0.03125 0  0.25 0.03125 0  0.28125 0.03125 0  0.3125 0.03125 0  0.34375 0.03125 0  0.375 0.03125 0  0.40625 0.03125 0  0.4375 0.03125 0  0.46875 0.03125 0  0.5 0.03125 0  0.53125 0.03125 0  0.5625 0.03125 0  0.59375 0.03125 0  0.625 0.03125 0  0.65625 0.03125 0  0.6875 0.03125 0  0.71875 0.03125 0  0.75 0.03125 0  0.78125 0.03125 0  0.8125 0.03125 0  0.84375 0.03125 0  0.875 0.03125 0  0.90625 0.03125 0  0.9375 0.03125 0  0.96875 0.03125 0  1 0.03125 0  0 0.0625 0  0.03125 0.0625 0  0.0625 0.0625 0  0.09375 0.0625 0  0.125 0.0625 0  0.15625 0.0625 0  0.1875 0.0625 0  0.21875 0.0625 0  0.25 0.0625 0  0.28125 0.0625 0  0.3125 0.0625 0  0.34375 0.0625 0  0.375 0.0625 0  0.40625 0.0625 0  0.4375 0.0625 0  0.46875 0.0625 0  0.5 0.0625 0  0.53125 0.0625 0  0.5625 0.0625 0  0.59375 0.0625 0  0.625 0.0625 0  0.65625 0.0625 0  0.6875 0.0625 0  0.71875 0.0625 0  0.75 0.0625 0  0.78125 0.0625 0  0.8125 0.0625 0  0.84375 0.0625 0  0.875 0.0625 0  0.90625 0.0625 0  0.9375 0.0625 0  0.96875 0.0625 0  1 0.0625 0  0 0.09375 0  0.03125 0.09375 0  0.0625 0.09375 0  0.09375 0.09375 0  0.125 0.09375 0  0.15625 0.09375 0  0.1875 0.09375 0  0.21875 0.09375 0  0.25 0.09375 0  0.28125 0.09375 0  0.3125 0.09375 0  0.34375 0.09375 0  0.375 0.09375 0  0.40625 0.09375 0  0.4375 0.09375 0  0.46875 0.09375 0  0.5 0.09375 0  0.53125 0.09375 0  0.5625 0.09375 0  0.59375 0.09375 0  0.625 0.09375 0  0.65625 0.09375 0  0.6875 0.09375 0  0.71875 0.09375 0  0.75 0.09375 0  0.78125 0.09375 0  0.8125 0.09375 0  0.84375 0.09375 0  0.875 0.09375 0  0.90625 0.09375 0  0.9375 0.09375 0  0.96875 0.09375 0  1 0.09375 0  0 0.125 0  0.03125 0.125 0  0.0625 0.125 0  0.09375 0.125 0  0.125 0.125 0  0.15625 0.125 0  0.1875 0.125 0  0.21875 0.125 0  0.25 0.125 0  0.28125 0.125 0  0.3125 0.125 0  0.34375 0.125 0  0.375 0.125 0  0.40625 0.125 0  0.4375 0.125 0  0.46875 0.125 0  0.5 0.125 0  0.53125 0.125 0  0.5625 0.125 0  0.59375 0.125 0  0.625 0.125 0  0.65625 0.125 0  0.6875 0.125 0  0.71875 0.125 0  0.75 0.125 0  0.78125 0.125 0  0.8125 0.125 0  0.84375 0.125 0  0.875 0.125 0  0.90625 0.125 0  0.9375 0.125 0  0.96875 0.125 0  1 0.125 0  0 0.15625 0  0.03125 0.15625 0  0.0625 0.15625 0  0.09375 0.15625 0  0.125 0.15625 0  0.15625 0.15625 0  0.1875 0.15625 0  0.21875 0.15625 0  0.25 0.15625 0  0.28125 0.15625 0  0.3125 0.15625 0  0.34375 0.15625 0  0.375 0.15625 0  0.40625 0.15625 0  0.4375 0.15625 0  0.46875 0.15625 0  0.5 0.15625 0  0.53125 0.15625 0  0.5625 0.15625 0  0.59375 0.15625 0  0.625 0.15625 0  0.65625 0.15625 0  0.6875 0.15625 0  0.71875 0.15625 0  0.75 0.15625 0  0.78125 0.15625 0  0.8125 0.15625 0  0.84375 0.15625 0  0.875 0.15625 0  0.90625 0.15625 0  0.9375 0.15625 0  0.96875 0.15625 0  1 0.15625 0  0 0.1875 0  0.03125 0.1875 0  0.0625 0.1875 0  0.09375 0.1875 0  0.125 0.1875 0  0.15625 0.1875 0  0.1875 0.1875 0  0.21875 0.1875 0  0.25 0.1875 0  0.28125 0.1875 0  0.3125 0.1875 0  0.34375 0.1875 0  0.375 0.1875 0  0.40625 0.1875 0  0.4375 0.1875 0  0.46875 0.1875 0  0.5 0.1875 0  0.53125 0.1875 0  0.5625 0.1875 0  0.59375 0.1875 0  0.625 0.1875 0  0.65625 0.1875 0  0.6875 0.1875 0  0.71875 0.1875 0  0.75 0.1875 0  0.78125 0.1875 0  0.8125 0.1875 0  0.84375 0.1875 0  0.875 0.1875 0  0.90625 0.1875 0  0.9375 0.1875 0  0.96875 0.1875 0  1 0.1875 0  0 0.21875 0  0.03125 0.21875 0  0.0625 0.21875 0  0.09375 0.21875 0  0.125 0.21875 0  0.15625 0.21875 0  0.1875 0.21875 0  0.21875 0.21875 0  0.25 0.21875 0  0.28125 0.21875 0  0.3125 0.21875 0  0.34375 0.21875 0  0.375 0.21875 0  0.40625 0.21875 0  0.4375 0.21875 0  0.46875 0.21875 0  0.5 0.21875 0  0.53125 0.21875 0  0.5625 0.21875 0  0.59375 0.21875 0  0.625 0.21875 0  0.65625 0.21875 0  0.6875 0.21875 0  0.71875 0.21875 0  0.75 0.21875 0  0.78125 0.21875 0  0.8125 0.21875 0  0.84375 0.21875 0  0.875 0.21875 0  0.90625 0.21875 0  0.9375 0.21875 0  0.96875 0.21875 0  1 0.21875 0  0 0.25 0  0.03125 0.25 0  0.0625 0.25 0  0.09375 0.25 0  0.125 0.25 0  0.15625 0.25 0  0.1875 0.25 0  0.21875 0.25 0  0.25 0.25 0  0.28125 0.25 0  0.3125 0.25 0  0.34375 0.25 0  0.375 0.25 0  0.40625 0.25 0  0.4375 0.25 0  0.46875 0.25 0  0.5 0.25 0  0.53125 0.25 0  0.5625 0.25 0  0.59375 0.25 0  0.625 0.25 0  0.65625 0.25 0  0.6875 0.25 0  0.71875 0.25 0  0.75 0.25 0  0.78125 0.25 0  0.8125 0.25 0  0.84375 0.25 0  0.875 0.25 0  0.90625 0.25 0  0.9375 0.25 0  0.96875 0.25 0  1 0.25 0  0 0.28125 0  0.03125 0.28125 0  0.0625 0.28125 0  0.09375 0.28125 0  0.125 0.28125 0  0.15625 0.28125 0  0.1875 0.28125 0  0.21875 0.28125 0  0.25 0.28125 0  0.28125 0.28125 0  0.3125 0.28125 0  0.34375 0.28125 0  0.375 0.28125 0  0.40625 0.28125 0  0.4375 0.28125 0  0.46875 0.28125 0  0.5 0.28125 0  0.53125 0.28125 0  0.5625 0.28125 0  0.59375 0.28125 0  0.625 0.28125 0  0.65625 0.28125 0  0.6875 0.28125 0  0.71875 0.28125 0  0.75 0.28125 0  0.78125 0.28125 0  0.8125 0.28125 0  0.84375 0.28125 0  0.875 0.28125 0  0.90625 0.28125 0  0.9375 0.28125 0  0.96875 0.28125 0  1 0.28125 0  0 0.3125 0  0.03125 0.3125 0  0.0625 0.3125 0  0.09375 0.3125 0  0.125 0.3125 0  0.15625 0.3125 0  0.1875 0.3125 0  0.21875 0.3125 0  0.25 0.3125 0  0.28125 0.3125 0  0.3125 0.3125 0  0.34375 0.3125 0  0.375 0.3125 0  0.40625 0.3125 0  0.4375 0.3125 0  0.46875 0.3125 0  0.5 0.3125 0  0.53125 0.3125 0  0.5625 0.3125 0  0.59375 0.3125 0  0.625 0.3125 0  0.65625 0.3125 0  0.6875 0.3125 0  0.71875 0.3125 0  0.75 0.3125 0  0.78125 0.3125 0  0.8125 0.3125 0  0.84375 0.3125 0  0.875 0.3125 0  0.90625 0.3125 0  0.9375 0.3125 0  0.96875 0.3125 0  1 0.3125 0  0 0.34375 0  0.03125 0.34375 0  0.0625 0.34375 0  0.09375 0.34375 0  0.125 0.34375 0  0.15625 0.34375 0  0.1875 0.34375 0  0.21875 0.34375 0  0.25 0.34375 0  0.28125 0.34375 0  0.3125 0.34375 0  0.34375 0.34375 0  0.375 0.34375 0  0.40625 0.34375 0  0.4375 0.34375 0  0.46875 0.34375 0  0.5 0.34375 0  0.53125 0.34375 0  0.5625 0.34375 0  0.59375 0.34375 0  0.625 0.34375 0  0.65625 0.34375 0  0.6875 0.34375 0  0.71875 0.34375 0  0.75 0.34375 0  0.78125 0.34375 0  0.8125 0.34375 0  0.84375 0.34375 0  0.875 0.34375 0  0.90625 0.34375 0  0.9375 0.34375 0  0.96875 0.34375 0  1 0.34375 0  0 0.375 0  0.03125 0.375 0  0.0625 0.375 0  0.09375 0.375 0  0.125 0.375 0  0.15625 0.375 0  0.1875 0.375 0  0.21875 0.375 0  0.25 0.375 0  0.28125 0.375 0  0.3125 0.375 0  0.34375 0.375 0  0.375 0.375 0  0.40625 0.375 0  0.4375 0.375 0  0.46875 0.375 0  0.5 0.375 0  0.53125 0.375 0  0.5625 0.375 0  0.59375 0.375 0  0.625 0.375 0  0.65625 0.375 0  0.6875 0.375 0  0.71875 0.375 0  0.75 0.375 0  0.78125 0.375 0  0.8125 0.375 0  0.84375 0.375 0  0.875 0.375 0  0.90625 0.375 0  0.9375 0.375 0  0.96875 0.375 0  1 0.375 0  0 0.40625 0  0.03125 0.40625 0  0.0625 0.40625 0  0.09375 0.40625 0  0.125 0.40625 0  0.15625 0.40625 0  0.1875 0.40625 0  0.21875 0.40625 0  0.25 0.40625 0  0.28125 0.40625 0  0.3125 0.40625 0  0.34375 0.40625 0  0.375 0.40625 0  0.40625 0.40625 0  0.4375 0.40625 0  0.46875 0.40625 0  0.5 0.40625 0  0.53125 0.40625 0  0.5625 0.40625 0  0.59375 0.40625 0  0.625 0.40625 0  0.65625 0.40625 0  0.6875 0.40625 0  0.71875 0.40625 0  0.75 0.40625 0  0.78125 0.40625 0  0.8125 0.40625 0  0.84375 0.40625 0  0.875 0.40625 0  0.90625 0.40625 0  0.9375 0.40625 0  0.96875 0.40625 0  1 0.40625 0  0 0.4375 0  0.03125 0.4375 0  0.0625 0.4375 0  0.09375 0.4375 0  0.125 0.4375 0  0.15625 0.4375 0  0.1875 0.4375 0  0.21875 0.4375 0  0.25 0.4375 0  0.28125 0.4375 0  0.3125 0.4375 0  0.34375 0.4375 0  0.375 0.4375 0  0.40625 0.4375 0  0.4375 0.4375 0  0.46875 0.4375 0  0.5 0.4375 0  0.53125 0.4375 0  0.5625 0.4375 0  0.59375 0.4375 0  0.625 0.4375 0  0.65625 0.4375 0  0.6875 0.4375 0  0.71875 0.4375 0  0.75 0.4375 0  0.78125 0.4375 0  0.8125 0.4375 0  0.84375 0.4375 0  0.875 0.4375 0  0.90625 0.4375 0  0.9375 0.4375 0  0.96875 0.4375 0  1 0.4375 0  0 0.46875 0  0.03125 0.46875 0  0.0625 0.46875 0  0.09375 0.46875 0  0.125 0.46875 0  0.15625 0.46875 0  0.1875 0.46875 0  0.21875 0.46875 0  0.25 0.46875 0  0.28125 0.46875 0  0.3125 0.46875 0  0.34375 0.46875 0  0.375 0.46875 0  0.40625 0.46875 0  0.4375 0.46875 0  0.46875 0.46875 0  0.5 0.46875 0  0.53125 0.46875 0  0.5625 0.46875 0  0.59375 0.46875 0  0.625 0.46875 0  0.65625 0.46875 0  0.6875 0.46875 0  0.71875 0.46875 0  0.75 0.46875 0  0.78125 0.46875 0  0.8125 0.46875 0  0.84375 0.46875 0  0.875 0.46875 0  0.90625 0.46875 0  0.9375 0.46875 0  0.96875 0.46875 0  1 0.46875 0  0 0.5 0  0.03125 0.5 0  0.0625 0.5 0  0.09375 0.5 0  0.125 0.5 0  0.15625 0.5 0  0.1875 0.5 0  0.21875 0.5 0  0.25 0.5 0  0.28125 0.5 0  0.3125 0.5 0  0.34375 0.5 0  0.375 0.5 0  0.40625 0.5 0  0.4375 0.5 0  0.46875 0.5 0  0.5 0.5 0  0.53125 0.5 0  0.5625 0.5 0  0.59375 0.5 0  0.625 0.5 0  0.65625 0.5 0  0.6875 0.5 0  0.71875 0.5 0  0.75 0.5 0  0.78125 0.5 0  0.8125 0.5 0  0.84375 0.5 0  0.875 0.5 0  0.90625 0.5 0  0.9375 0.5 0  0.96875 0.5 0  1 0.5 0  0 0.53125 0  0.03125 0.53125 0  0.0625 0.53125 0  0.09375 0.53125 0  0.125 0.53125 0  0.15625 0.53125 0  0.1875 0.53125 0  0.21875 0.53125 0  0.25 0.53125 0  0.28125 0.53125 0  0.3125 0.53125 0  0.34375 0.53125 0  0.375 0.53125 0  0.40625 0.53125 0  0.4375 0.53125 0  0.46875 0.53125 0  0.5 0.53125 0  0.53125 0.53125 0  0.5625 0.53125 0  0.59375 0.53125 0  0.625 0.53125 0  0.65625 0.53125 0  0.6875 0.53125 0  0.71875 0.53125 0  0.75 0.53125 0  0.78125 0.531
[...]
<PointData  Scalars="u"> 
<DataArray  type="Float64"  Name="u"  format="ascii">0.0000000000000000e+00  0.0000000000000000e+00  0.0000000000000000e+00  0.0000000000000000e+00  0.0000000000000000e+00  0.0000000000000000e+00  0.0000000000000000e+00  0.0000000000000000e+00  0.0000000000000000e+00  0.0000000000000000e+00  0.0000000000000000e+00  0.0000000000000000e+00  0.0000000000000000e+00  0.0000000000000000e+00  0.0000000000000000e+00  0.0000000000000000e+00  0.0000000000000000e+00  0.0000000000000000e+00  0.0000000000000000e+00  0.0000000000000000e+00  0.0000000000000000e+00  0.0000000000000000e+00  0.0000000000000000e+00  0.0000000000000000e+00  0.0000000000000000e+00  0.0000000000000000e+00  0.0000000000000000e+00  0.0000000000000000e+00  0.0000000000000000e+00  0.0000000000000000e+00  0.0000000000000000e+00  0.0000000000000000e+00  0.0000000000000000e+00  0.0000000000000000e+00  1.3614568141245093e-02  2.7198105715547798e-02  4.0668154102015450e-02  5.3862359050010807e-02  6.6512109021324137e-02  7.8242757371012536e-02  8.8614257828343659e-02  9.7206189216967442e-02  1.0373412277648733e-01  1.0817664379156439e-01  1.1085093586551852e-01  1.1233617832397974e-01  1.1328618583177680e-01  1.1427673030313570e-01  1.1572978654473494e-01  1.1788674582723443e-01  1.2079221232770812e-01  1.2426580220367860e-01  1.2786277480425975e-01  1.3085105918118861e-01  1.3225510413161537e-01  1.3101333358040790e-01  1.2625201134356234e-01  1.1765816387514863e-01  1.0573714215386722e-01  9.1559076277177312e-02  7.6222311391189942e-02  6.0541446701366269e-02  4.4984919115912701e-02  2.9736021725374463e-02  1.4783295061247302e-02  0.0000000000000000e+00  0.0000000000000000e+00  2.7346010396951698e-02  5.4668325286498828e-02  8.1842049578030485e-02  1.0856795695755865e-01  1.3430753611789736e-01  1.5826964840960900e-01  1.7948794507832813e-01  1.9700415768373239e-01  2.1012175491032606e-01  2.1872228886668596e-01  2.2351736784389539e-01  2.2585381911051841e-01  2.2719318979899625e-01  2.2876387189067737e-01  2.3143738687742593e-01  2.3571311325941771e-01  2.4170840206724661e-01  2.4910128950894991e-01  2.5702415608270268e-01  2.6396738411024512e-01  2.6782046124170872e-01  2.6618446879422075e-01  2.5693772872285658e-01  2.3919668804881639e-01  2.1422699097964404e-01  1.8470773603186377e-01  1.5314990278839047e-01  1.2124700295001628e-01  8.9876229688156659e-02  5.9314624674158260e-02  2.9460288664727961e-02  0.0000000000000000e+00  0.0000000000000000e+00  4.1260334374210880e-02  8.2591948437802071e-02  1.2391148133875569e-01  1.6484608819126312e-01  2.0459857914951818e-01  2.4188141775273875e-01  2.7501603986263712e-01  3.0225031789679280e-01  3.2215769723561510e-01  3.3427048456197994e-01  3.3989088495820308e-01  3.4165630414538778e-01  3.4218658249353995e-01  3.4348877776883480e-01  3.4690090576568333e-01  3.5319110897426104e-01  3.6260679097459392e-01  3.7478976985325124e-01  3.8854377512672222e-01  4.0153726006317969e-01  4.1020811146717057e-01  4.1025012111378195e-01  3.9732953964629530e-01  3.6908065832343306e-01  3.2826822733124950e-01  2.8076704398399921e-01  2.3115513100381796e-01  1.8200769911697628e-01  1.3439719829667884e-01  8.8474835813820513e-02  4.3881555880644581e-02  0.0000000000000000e+00  0.0000000000000000e+00  5.5335355069691380e-02  1.1097779465957557e-01  1.6703054612970825e-01  2.2317957906382507e-01  2.7843184555380074e-01  3.3090016758531637e-01  3.7787198062483679e-01  4.1639808921565585e-01  4.4368563543695538e-01  4.5810594869624061e-01  4.6198894495266762e-01  4.6061982928894685e-01  4.5837655138093741e-01  4.5810484515791960e-01  4.6151266350199510e-01  4.6958921590200142e-01  4.8279701449015605e-01  5.0097294369012291e-01  5.2288627709975100e-01  5.4547377202569747e-01  5.6322840049026324e-01  5.6921246761783117e-01  5.5487788357972057e-01  5.1321260020370607e-01  4.5050693839994044e-01  3.8024817184117715e-01  3.0979599312946726e-01  2.4211323866221743e-01  1.7788980465402768e-01  1.1674217392824643e-01  5.7803222225780965e-02  0.0000000000000000e+00  0.0000000000000000e+00  6.9407008258518102e-02  1.3954706930106064e-01  2.1093313166231123e-01  2.8356879063299478e-01  3.5647607402664011e-01  4.2709383653733113e-01  4.9108026143045880e-01  5.4388967425967738e-01  5.8034957569235468e-01  5.9487395635024265e-01  5.9182813385724231e-01  5.8301575996138411e-01  5.7520510629356869e-01  5.7169142281133600e-01  5.7413701742053480e-01  5.8356208151729005e-01  6.0074373941378811e-01  6.2615484799234788e-01  6.5929168126228244e-01  6.9696371490467846e-01  7.3069576045856544e-01  7.5108611521365820e-01  7.4221227493797892e-01  6.8064370056768375e-01  5.8231425548481297e-01  4.8166768672106242e-01  3.8712758887652760e-01  2.9992797315459202e-01  2.1918067842270039e-01  1.4337964644230919e-01  7.0872718796346768e-02  0.0000000000000000e+00  0.0000000000000000e+00  8.3119219269135472e-02  1.6760447884528779e-01  2.5467717543739293e-01  3.4512768263800442e-01  4.3858979822728589e-01  5.3201837242877315e-01  6.1785615576538133e-01  6.9037457135238223e-01  7.4179791540854723e-01  7.5221200087467344e-01  7.3053920709622233e-01  7.0759114110207222e-01  6.9097466361374016e-01  6.8260083541739192e-01  6.8309930542465014e-01  6.9312447151917711e-01  7.1383041024262250e-01  7.4699805474670466e-01  7.9455815826171738e-01  8.5578236370143235e-01  9.1485366085420383e-01  9.5024915176895797e-01  9.5486974021093818e-01  8.7244329583981128e-01  7.1895726232639579e-01  5.7914836406474790e-01  4.5892546921972610e-01  3.5273301669050083e-01  2.5660341498951772e-01  1.6743737090495001e-01  8.2659496902801166e-02  0.0000000000000000e+00  0.0000000000000000e+00  9.5905896962796944e-02  1.9394353716418533e-01  2.9633865101891255e-01  4.0539151735565437e-01  5.2286530155385191e-01  6.4705401743537605e-01  7.6082903984458883e-01  8.4590896141231930e-01  9.1722617297603637e-01  9.3001255058321164e-01  8.7424052927256735e-01  8.2962364524644649e-01  8.0234714017909081e-01  7.8852897939484201e-01  7.8646297055331071e-01  7.9596485571633702e-01  8.1844029694616882e-01  8.5745707694564843e-01  9.2018899841641666e-01  1.0055566204455908e+00  1.0962273188472951e+00  1.1383979262510737e+00  1.1211933703029890e+00  1.0168437980477023e+00  8.2969312262433648e-01  6.5961032841568368e-01  5.1882386483009169e-01  3.9717298424526259e-01  2.8833027752214790e-01  1.8794714857533359e-01  9.2742566928520079e-02  0.0000000000000000e+00  0.0000000000000000e+00  1.0706377448061724e-01  2.1692065477590644e-01  3.3282988478068548e-01  4.5921268890100003e-01  6.0289035766907539e-01  7.6020285913780772e-01  9.0538709354220726e-01  9.8845582228865414e-01  1.0333226239556657e+00  1.0587044595561736e+00  9.9585840368375189e-01  9.3868634921533534e-01  9.0468584607964952e-01  8.8717481423871614e-01  8.8276560890885347e-01  8.9036844715402963e-01  9.1107050683438295e-01  9.4878641771183492e-01  1.0125619807330808e+00  1.1089570258711439e+00  1.1936052192130251e+00  1.2380850375323909e+00  1.2113674522678353e+00  1.0956201131636996e+00  8.9632775551482224e-01  7.1370002087900519e-01  5.6200787779662265e-01  4.3073168686045515e-01  3.1303596449824350e-01  2.0423225088368319e-01  1.0083552404219338e-01  0.0000000000000000e+00  0.0000000000000000e+00  1.1598792141597912e-01  2.3495537496486141e-01  3.6050893582297233e-01  4.9795434667602045e-01  6.5681874902425819e-01  8.4309303914242784e-01  9.9398948824570799e-01  1.0667623206315484e+00  1.1124783186764728e+00  1.1432513859760232e+00  1.0861796870224711e+00  1.0294878326559125e+00  9.9550044419994499e-01  9.7773093497727126e-01  9.7210485098006516e-01  9.7674757224956932e-01  9.9177881630066866e-01  1.0191601321772481e+00  1.0621979707035003e+00  1.1225883888583861e+00  1.1838979209566778e+00  1.2311240579188176e+00  1.2124723589666708e+00  1.1099075382126451e+00  9.1961074998756454e-01  7.4007477731416538e-01  5.8744380671443674e-01  4.5283432015685643e-01  3.3043656617009814e-01  2.1616374052194995e-01  1.0688955513500760e-01  0.0000000000000000e+00  0.0000000000000000e+00  1.2254121397325371e-01  2.4761347990569316e-01  3.7810697386752762e-01  5.1769161261012120e-01  6.7112696953536854e-01  8.4311336435503037e-01  1.0125374841111308e+00  1.1157807797419201e+00  1.1658033039735054e+00  1.1989489347476918e+00  1.1509682943443711e+00  1.1029806190556437e+00  1.0755582603522402e+00  1.0616576020678643e+00  1.0567265185812285e+00  1.0583096212640051e+00  1.0657119115194034e+00  1.0794403761264741e+00  1.1000193543855854e+00  1.1255626538098491e+00  1.1479874152343925e+00  1.1581968092322295e+00  1.1349088503173375e+00  1.0641656179547456e+00  9.0570240208760422e-01  7.4299653583315040e-01  5.9772570645829692e-01  4.6501323814594392e-01  3.4142410025454578e-01  2.2423449148502830e-01  1.1112432629697729e-01  0.0000000000000000e+00  0.0000000000000000e+00  1.2721414707669709e-01  2.5614393989381201e-01  3.8854842164855230e-01  5.2615127470094691e-01  6.7009304321508578e-01  8.1906318778053322e-01  9.6457421898975693e-01  1.0858069306110241e+00  1.1803376946212909e+00  1.2194484107753965e+00  1.1910127388782403e+00  1.1617330051788533e+00  1.1480047769925925e+00  1.1425901840198802e+00  1.1408501414183259e+00  1.1400824911738265e+00  1.1393352041410418e+00  1.1388455305538296e+00  1.1387830220279525e+00  1.1374610641487204e+00  1.1299525531942469e+00  1.1089854519491380e+00  1.0642541755438624e+00  9.8901536903084741e-01  8.6978136732405442e-01  7.3210699364110265e-01  5.9847232176726184e-01  4.7048830203312636e-01  3.4782623694028003e-01  2.2943370217153333e-01  1.1397458955198665e-01  0.0000000000000000e+00  0.0000000000000000e+00  1.3085773890331534e-01  2.6256395317268527e-01  3.9582836510367253e-01  5.3097305410155848e-01  6.6738291719197007e-01  8.0245421451170851e-01  9.3022715074091433e-01  1.0419234996395113e+00  1.1339375160690384e+00  1.1914615576226488e+00  1.2074859835786131e+00  1.2111347947076334e+00  1.2184541477728881e+00  1.2262487240852733e+00  1.2304495359924694e+00  1.2282915408695605e+00  1.2191256534950363e+00  1.2041767777189032e+00  1.1850480114119932e+00  1.1616336126821671e+00  1.1312591121142122e+00  1.0891548938055999e+00  1.0293826607441230e+00  9.4747516064839565e-01  8.4139697207776820e-01  7.2092760756756691e-01  5.9671142856182635e-01  4.7316511315531795e-01  3.5185540259261455e-01  2.3296438904179947e-01  1.1597112919803704e-01  0.0000000000000000e+00  0.0000000000000000e+00  1.3436983258367727e-01  2.6885051163414286e-01  4.0335189977133956e-01  5.3733885639776602e-01  6.6948537540659048e-01  7.9725247706497782e-01  9.1665692554451461e-01  1.0229539157081917e+00  1.1124822617318515e+00  1.1805626175357729e+00  1.2274290756189168e+00  1.2633967499115775e+00  1.2951145592305706e+00  1.3202969592512996e+00  1.3332622541229422e+00  1.3303671822883631e+00  1.3115073890930604e+00  1.2803936581718449e+00  1.2421522840550534e+00  1.1991183255374687e+00  1.1503927393821711e+00  1.0927754005458004e+00  1.0220482859582571e+00  9.3505514715877769e-01  8.3183094987314432e-01  7.1734500612591368e-01  5.9751937569276581e-01  4.7621245836384013e-01  3.5542876967212783e-01  2.3590827960354321e-01  1.1760022770259430e-01  0.0000000000000000e+00  0.0000000000000000e+00  1.3851532469767899e-01  2.7659475501920511e-01  4.1359096372777893e-01  5.4845093392057931e-01  6.7955218346544377e-01  8.0464253790079732e-01  9.2102181172420350e-01  1.0261221394309472e+00  1.1183194349822061e+00  1.1971230773133401e+00  1.2648411616259825e+00  1.3267371195144411e+00  1.3853400210192459e+00  1.4337330788728448e+00  1.4591794247363921e+00  1.4556523997562507e+00  1.4233172241315928e+00  1.3707769117419311e+00  1.3108956695623859e+00  1.2488964452520028e+00  1.1847223649360368e+00  1.1154561624724222e+00  1.0365160093546946e+00  9.4392528380456642e-01  8.3804972550921875e-01  7.2304053041470184e-01  6.0312738140434707e-01  4.8141201055749872e-01  3.5975554194413989e-01  2.3898778574981200e-01  1.1919540765386459e-01  0.0000000000000000e+00  0.0000000000000000e+00  1.4386609884737431e-01  2.8695010948668059e-01  4.2823901489500388e-01  5.6631822101651297e-01  6.9932079455810781e-01  8.2509086841010948e-01  9.4162204329710053e-01  1.0477038934898610e+00  1.1435538786334802e+00  1.2312017141512615e+00  1.3148737580592387e+00  1.4004762976849199e+00  1.4931305686684901e+00  1.5776504869126715e+00  1.6216969075639938e+00  1.6173697450662190e+00  1.5628602535282070e+00  1.4758552304046162e+00  1.3888770836694542e+00  1.3076841394788701e+00  1.2306443045814641e+00  1.1539250360678897e+00  1.0703064582396873e+00  9.7125222986911142e-01  8.5802010056066358e-01  7.3765964211326940e-01  6.1392533371024505e-01  4.8928457033260336e-01  3.6525350866942524e-01  2.4246944734220272e-01  1.2088271400147119e-01  0.0000000000000000e+00  0.0000000000000000e+00  1.5079223698828739e-01  3.0067563460526175e-01  4.4843834986063463e-01  5.9234670354313623e-01  7.3011716027001916e-01  8.5924301554750426e-01  9.7775729583797877e-01  1.0851692346231416e+00  1.1831505319480831e+00  1.2758672633841797e+00  1.3699845028421624e+00  1.4745223326750432e+00  1.6014820008787121e+00  1.7394624440610593e+00  1.8101272459953091e+00  1.8068021537658869e+00  1.7275365393208972e+00  1.5885548623667389e+00  1.4684410706398783e+00  1.3693626525554294e+00  1.2829241659822357e+00  1.2055617257576654e+00  1.1253381145952681e+00  1.0180404063791153e+00  8.8982706098741360e-01  7.5974515529840014e-01  6.2907580658331663e-01  4.9932478398381180e-01  3.7159794741995383e-01  2.4615362451972903e-01  1.2256650971897709e-01  0.0000000000000000e+00  0.0000000000000000e+00  1.5944350662455450e-01  3.1814266472574598e-01  4.7490109039693806e-01  6.2768497312853355e-01  7.7345784235725379e-01  9.0858984827048139e-01  1.0302092232410638e+00  1.1378540085704665e+00  1.2343177373162693e+00  1.3259019275169559e+00  1.4218615775063930e+00  1.5337140756896959e+00  1.6762601174963399e+00  1.8396810968033019e+00  1.9285551722841587e+00  1.9281769237946209e+00  1.8382381103856347e+00  1.6750565919743079e+00  1.5345450490751222e+00  1.4256182805050803e+00  1.3329549693810645e+00  1.2512276959835511e+00  1.1829046285544258e+00  1.0758982332206239e+00  9.2829161187876852e-01  7.8657171834520445e-01  6.4679953383268418e-01  5.1015120363209820e-01  3.7777630187442041e-01  2.4939507006361078e-01  1.2393763514956282e-01  0.0000000000000000e+00  0.0000000000000000e+00  1.6967737165905020e-01  3.3921545063432779e-01  5.0781363035015303e-01  6.7329329034974017e-01  8.3144455358926672e-01  9.7615165637914858e-01  1.1019773153425589e+00  1.2076384105618116e+00  1.2967993918322549e+00  1.3784589127386679e+00  1.4651639892294315e+00  1.5699213451960032e+00  1.7077729997102988e+00  1.8704964030948248e+00  1.9619916159864272e+00  1.9648678457722961e+00  1.8782308391962590e+00  1.7165000800199586e+00  1.5767837534108524e+00  1.4729491232558634e+00  1.3789788536259728e+00  1.2747428911163710e+00  1.1785239510386691e+00  1.0731797381390702e+00  9.5048420111574239e-01  8.1564730619907722e-01  6.6491936961278919e-01  5.1953202133186061e-01  3.8208752510252691e-01  2.5113276190781508e-01  1.2449970066435415e-01  0.0000000000000000e+00  0.0000000000000000e+00  1.8090875403078172e-01  3.6293436235087573e-01  5.4638346382871805e-01  7.2957525006623292e-01  9.0698744611613846e-01  1.0674186944016686e+00  1.1993780827952296e+00  1.2999627417953072e+00  1.3733249173191087e+00  1.4329579737947509e+00  1.4978052500323451e+00  1.5808022337154870e+00  1.6920728782752412e+00  1.8286367714207328e+00  1.9098552398494371e+00  1.9168860648710100e+00  1.8494292502668417e+00  1.7136039947532806e+00  1.5909196735430666e+00  1.5025779772093506e+00  1.4270112654579010e+00  1.2967493490920201e+00  1.1740406146240121e+00  1.0628048528588045e+00  9.5921143657470376e-01  8.4959274106640226e-01  6.8122424919608893e-01  5.2379493244310860e-01  3.8202940289840215e-01  2.4996317656582875e-01  1.2363634480688010e-01  0.0000000000000000e+00  0.0000000000000000e+00  1.9189762745305844e-01  3.8697095077478422e-01  5.8780641730820271e-01  7.9506462268412881e-01  1.0037316023563532e+00  1.1921075978673643e+00  1.3337506953794147e+00  1.4256636956306206e+00  1.4702060269705652e+00  1.4892764418985887e+00  1.5196959983396054e+00  1.5711479739697389e+00  1.6439033460777883e+00  1.7285852512613920e+00  1.7880671764942127e+00  1.7995652183898523e+00  1.7602571104829570e+00  1.6751854237817223e+00  1.5784543089781784e+00  1.4963370225796593e+00  1.4300618375522935e+00  1.3024429150522630e+00  1.1640308196157600e+00  1.0501833933062992e+00  9.4831163302099009e-01  8.3983734269228338e-01  6.7485608293961552e-01  5.1518935527946030e-01  3.7436553387389493e-01  2.4444922617485265e-01  1.2078085276102085e-01  0.0000000000000000e+00  0.0000000000000000e+00  2.0059431435946559e-01  4.0700940739847680e-01  6.2544528011504341e-01  8.6264401802805124e-01  1.1098568933804627e+00  1.3381400265948471e+00  1.4931134450782437e+00  1.5745287234755803e+00  1.5840098133938247e+00  1.5412758510641729e+00  1.5278929651308173e+00  1.5478160657422604e+00  1.5916976926592350e+00  1.6466145754316295e+00  1.6920493094750593e+00  1.7108548822348983e+00  1.6945394725038356e+00  1.6411162994588397e+00  1.5589834870691712e+00  1.4662712644428821e+00  1.3794350936164808e+00  1.2795963902237713e+00  1.1352861997199073e+00  1.0156296439975951e+00  9.1825228340997522e-01  7.8404333487908806e-01  6.3612727451437834e-01  4.9046963647948577e-01  3.5783520761652671e-01  2.3404668721762206e-01  1.1571872062267252e-01  0.0000000000000000e+00  0.0000000000000000e+00  2.0435161487097281e-01  4.1679280396258245e-01  6.4697416443053291e-01  9.0851364842682147e-01  1.1936047358753505e+00  1.4255474741665697e+00  1.5795149088915306e+00  1.6493134096998943e+00  1.6348484017373222e+00  1.5556514552540714e+00  1.5099855981708075e+00  1.5079600932667401e+00  1.5361086272064288e+00  1.5819611443850827e+00  1.6306148198109014e+00  1.6652458220180644e+00  1.6738266119608149e+00  1.6434569408380788e+00  1.5574968006472003e+00  1.4373723892560155e+00  1.3179794970947494e+00  1.2007519934057298e+00  1.0722921568937902e+00  9.4865164177397077e-01  8.3814662321221234e-01  7.1541182794397640e-01  5.8318616837509540e-01  4.5534594329805295e-01  3.3441926426034868e-01  2.1948974086089365e-01  1.0870231623937920e-01  0.0000000000000000e+00  0.0000000000000000e+00  2.0088257262513781e-01  4.1057130793208108e-01  6.3976247162195121e-01  9.0387465258687405e-01  1.1977756521311091e+00  1.4285117884959004e+00  1.5730652304651673e+00  1.6318142887113782e+00  1.6046576447835541e+00  1.5128150002763980e+00  1.4554074845388947e+00  1.4450882983026665e+00  1.4701594844674897e+00  1.5220152551085031e+00  1.5908306978835411e+00  1.6533592452472337e+00  1.6844504391620412e+00  1.6783723123599095e+00  1.5821001926269356e+00  1.4145180428566435e+00  1.2607030778414323e+00  1.1237806534868100e+00  9.9460637663578566e-01  8.7336201068958030e-01  7.5931073546443517e-01  6.4473305555077398e-01  5.2894959906849681e-01  4.1578106943748877e-01  3.0685956266260145e-01  2.0202696777092433e-01  1.0022169398768291e-01  0.0000000000000000e+00  0.0000000000000000e+00  1.8943294346790673e-01  3.8651146170826611e-01  6.0014470846801604e-01  8.4236142043200879e-01  1.1170057284230768e+00  1.3398361218589845e+00  1.4751967343184849e+00  1.5234346299585624e+00  1.4931166206862878e+00  1.4115513997710467e+00  1.3603652449550252e+00  1.3536120139377519e+00  1.3843819867331988e+00  1.4522313843073895e+00  1.5493596937651359e+00  1.6497773617600406e+00  1.6938537793012904e+00  1.6735416926736026e+00  1.5630119408271943e+00  1.3691194613181188e+00  1.1925321663904220e+00  1.0445803630662116e+00  9.1401027285584957e-01  7.9538231079357347e-01  6.8497548469263092e-01  5.7868935949725542e-01  4.7496612176990483e-01  3.7426700685530345e-01  2.7693585947783395e-01  1.8268874789012607e-01  9.0736979540064155e-02  0.0000000000000000e+00  0.0000000000000000e+00  1.7110562142395694e-01  3.4744722387245858e-01  5.3428486860143309e-01  7.3633124353076540e-01  9