<?xml version="1.0"?>
<VTKFile type="UnstructuredGrid"  version="0.1"  >
<UnstructuredGrid>
<Piece  NumberOfPoints="1089" NumberOfCells="2048">
<Points>
<DataArray  type="Float64"  NumberOfComponents="3"  format="ascii">0 0 0  0.03125 0 0  0.0625 0 0  0.09375 0 0  0.125 0 0  0.15625 0 0  0.1875 0 0  0.21875 0 0  0.25 0 0  0.28125 0 0  0.3125 0 0  0.34375 0 0  0.375 0 0  0.40625 0 0  0.4375 0 0  0.46875 0 0  0.5 0 0  0.53125 0 0  0.5625 0 0  0.59375 0 0  0.625 0 0  0.65625 0 0  0.6875 0 0  0.71875 0 0  0.75 0 0  0.78125 0 0  0.8125 0 0  0.84375 0 0  0.875 0 0  0.90625 0 0  0.9375 0 0  0.96875 0 0  1 0 0  0 0.03125 0  0.03125 0.03125 0  0.0625 0.03125 0  0.09375 0.03125 0  0.125 0.03125 0  0.15625 0.03125 0  0.1875 0.03125 0  0.21875 0.03125 0  0.25 0.03125 0  0.28125 0.03125 0  0.3125 0.03125 0  0.34375 0.03125 0  0.375 0.03125 0  0.40625 0.03125 0  0.4375 0.03125 0  0.46875 0.03125 0  0.5 0.03125 0  0.53125 0.03125 0  0.5625 0.03125 0  0.59375 0.03125 0  0.625 0.03125 0  0.65625 0.03125 0  0.6875 0.03125 0  0.71875 0.03125 0  0.75 0.03125 0  0.78125 0.03125 0  0.8125 0.03125 0  0.84375 0.03125 0  0.875 0.03125 0  0.90625 0.03125 0  0.9375 0.03125 0  0.96875 0.03125 0  1 0.03125 0  0 0.0625 0  0.03125 0.0625 0  0.0625 0.0625 0  0.09375 0.0625 0  0.125 0.0625 0  0.15625 0.0625 0  0.1875 0.0625 0  0.21875 0.0625 0  0.25 0.0625 0  0.28125 0.0625 0  0.3125 0.0625 0  0.34375 0.0625 0  0.375 0.0625 0  0.40625 0.0625 0  0.4375 0.0625 0  0.46875 0.0625 0  0.5 0.0625 0  0.53125 0.0625 0  0.5625 0.0625 0  0.59375 0.0625 0  0.625 0.0625 0  0.65625 0.0625 0  0.6875 0.0625 0  0.71875 0.0625 0  0.75 0.0625 0  0.78125 0.0625 0  0.8125 0.0625 0  0.84375 0.0625 0  0.875 0.0625 0  0.90625 0.0625 0  0.9375 0.0625 0  0.96875 0.0625 0  1 0.0625 0  0 0.09375 0  0.03125 0.09375 0  0.0625 0.09375 0  0.09375 0.09375 0  0.125 0.09375 0  0.15625 0.09375 0  0.1875 0.09375 0  0.21875 0.09375 0  0.25 0.09375 0  0.28125 0.09375 0  0.3125 0.09375 0  0.34375 0.09375 0  0.375 0.09375 0  0.40625 0.09375 0  0.4375 0.09375 0  0.46875 0.09375 0  0.5 0.09375 0  0.53125 0.09375 0  0.5625 0.09375 0  0.59375 0.09375 0  0.625 0.09375 0  0.65625 0.09375 0  0.6875 0.09375 0  0.71875 0.09375 0  0.75 0.09375 0  0.78125 0.09375 0  0.8125 0.09375 0  0.84375 0.09375 0  0.875 0.09375 0  0.90625 0.09375 0  0.9375 0.09375 0  0.96875 0.09375 0  1 0.09375 0  0 0.125 0  0.03125 0.125 0  0.0625 0.125 0  0.09375 0.125 0  0.125 0.125 0  0.15625 0.125 0  0.1875 0.125 0  0.21875 0.125 0  0.25 0.125 0  0.28125 0.125 0  0.3125 0.125 0  0.34375 0.125 0  0.375 0.125 0  0.40625 0.125 0  0.4375 0.125 0  0.46875 0.125 0  0.5 0.125 0  0.53125 0.125 0  0.5625 0.125 0  0.59375 0.125 0  0.625 0.125 0  0.65625 0.125 0  0.6875 0.125 0  0.71875 0.125 0  0.75 0.125 0  0.78125 0.125 0  0.8125 0.125 0  0.84375 0.125 0  0.875 0.125 0  0.90625 0.125 0  0.9375 0.125 0  0.96875 0.125 0  1 0.125 0  0 0.15625 0  0.03125 0.15625 0  0.0625 0.15625 0  0.09375 0.15625 0  0.125 0.15625 0  0.15625 0.15625 0  0.1875 0.15625 0  0.21875 0.15625 0  0.25 0.15625 0  0.28125 0.15625 0  0.3125 0.15625 0  0.34375 0.15625 0  0.375 0.15625 0  0.40625 0.15625 0  0.4375 0.15625 0  0.46875 0.15625 0  0.5 0.15625 0  0.53125 0.15625 0  0.5625 0.15625 0  0.59375 0.15625 0  0.625 0.15625 0  0.65625 0.15625 0  0.6875 0.15625 0  0.71875 0.15625 0  0.75 0.15625 0  0.78125 0.15625 0  0.8125 0.15625 0  0.84375 0.15625 0  0.875 0.15625 0  0.90625 0.15625 0  0.9375 0.15625 0  0.96875 0.15625 0  1 0.15625 0  0 0.1875 0  0.03125 0.1875 0  0.0625 0.1875 0  0.09375 0.1875 0  0.125 0.1875 0  0.15625 0.1875 0  0.1875 0.1875 0  0.21875 0.1875 0  0.25 0.1875 0  0.28125 0.1875 0  0.3125 0.1875 0  0.34375 0.1875 0  0.375 0.1875 0  0.40625 0.1875 0  0.4375 0.1875 0  0.46875 0.1875 0  0.5 0.1875 0  0.53125 0.1875 0  0.5625 0.1875 0  0.59375 0.1875 0  0.625 0.1875 0  0.65625 0.1875 0  0.6875 0.1875 0  0.71875 0.1875 0  0.75 0.1875 0  0.78125 0.1875 0  0.8125 0.1875 0  0.84375 0.1875 0  0.875 0.1875 0  0.90625 0.1875 0  0.9375 0.1875 0  0.96875 0.1875 0  1 0.1875 0  0 0.21875 0  0.03125 0.21875 0  0.0625 0.21875 0  0.09375 0.21875 0  0.125 0.21875 0  0.15625 0.21875 0  0.1875 0.21875 0  0.21875 0.21875 0  0.25 0.21875 0  0.28125 0.21875 0  0.3125 0.21875 0  0.34375 0.21875 0  0.375 0.21875 0  0.40625 0.21875 0  0.4375 0.21875 0  0.46875 0.21875 0  0.5 0.21875 0  0.53125 0.21875 0  0.5625 0.21875 0  0.59375 0.21875 0  0.625 0.21875 0  0.65625 0.21875 0  0.6875 0.21875 0  0.71875 0.21875 0  0.75 0.21875 0  0.78125 0.21875 0  0.8125 0.21875 0  0.84375 0.21875 0  0.875 0.21875 0  0.90625 0.21875 0  0.9375 0.21875 0  0.96875 0.21875 0  1 0.21875 0  0 0.25 0  0.03125 0.25 0  0.0625 0.25 0  0.09375 0.25 0  0.125 0.25 0  0.15625 0.25 0  0.1875 0.25 0  0.21875 0.25 0  0.25 0.25 0  0.28125 0.25 0  0.3125 0.25 0  0.34375 0.25 0  0.375 0.25 0  0.40625 0.25 0  0.4375 0.25 0  0.46875 0.25 0  0.5 0.25 0  0.53125 0.25 0  0.5625 0.25 0  0.59375 0.25 0  0.625 0.25 0  0.65625 0.25 0  0.6875 0.25 0  0.71875 0.25 0  0.75 0.25 0  0.78125 0.25 0  0.8125 0.25 0  0.84375 0.25 0  0.875 0.25 0  0.90625 0.25 0  0.9375 0.25 0  0.96875 0.25 0  1 0.25 0  0 0.28125 0  0.03125 0.28125 0  0.0625 0.28125 0  0.09375 0.28125 0  0.125 0.28125 0  0.15625 0.28125 0  0.1875 0.28125 0  0.21875 0.28125 0  0.25 0.28125 0  0.28125 0.28125 0  0.3125 0.28125 0  0.34375 0.28125 0  0.375 0.28125 0  0.40625 0.28125 0  0.4375 0.28125 0  0.46875 0.28125 0  0.5 0.28125 0  0.53125 0.28125 0  0.5625 0.28125 0  0.59375 0.28125 0  0.625 0.28125 0  0.65625 0.28125 0  0.6875 0.28125 0  0.71875 0.28125 0  0.75 0.28125 0  0.78125 0.28125 0  0.8125 0.28125 0  0.84375 0.28125 0  0.875 0.28125 0  0.90625 0.28125 0  0.9375 0.28125 0  0.96875 0.28125 0  1 0.28125 0  0 0.3125 0  0.03125 0.3125 0  0.0625 0.3125 0  0.09375 0.3125 0  0.125 0.3125 0  0.15625 0.3125 0  0.1875 0.3125 0  0.21875 0.3125 0  0.25 0.3125 0  0.28125 0.3125 0  0.3125 0.3125 0  0.34375 0.3125 0  0.375 0.3125 0  0.40625 0.3125 0  0.4375 0.3125 0  0.46875 0.3125 0  0.5 0.3125 0  0.53125 0.3125 0  0.5625 0.3125 0  0.59375 0.3125 0  0.625 0.3125 0  0.65625 0.3125 0  0.6875 0.3125 0  0.71875 0.3125 0  0.75 0.3125 0  0.78125 0.3125 0  0.8125 0.3125 0  0.84375 0.3125 0  0.875 0.3125 0  0.90625 0.3125 0  0.9375 0.3125 0  0.96875 0.3125 0  1 0.3125 0  0 0.34375 0  0.03125 0.34375 0  0.0625 0.34375 0  0.09375 0.34375 0  0.125 0.34375 0  0.15625 0.34375 0  0.1875 0.34375 0  0.21875 0.34375 0  0.25 0.34375 0  0.28125 0.34375 0  0.3125 0.34375 0  0.34375 0.34375 0  0.375 0.34375 0  0.40625 0.34375 0  0.4375 0.34375 0  0.46875 0.34375 0  0.5 0.34375 0  0.53125 0.34375 0  0.5625 0.34375 0  0.59375 0.34375 0  0.625 0.34375 0  0.65625 0.34375 0  0.6875 0.34375 0  0.71875 0.34375 0  0.75 0.34375 0  0.78125 0.34375 0  0.8125 0.34375 0  0.84375 0.34375 0  0.875 0.34375 0  0.90625 0.34375 0  0.9375 0.34375 0  0.96875 0.34375 0  1 0.34375 0  0 0.375 0  0.03125 0.375 0  0.0625 0.375 0  0.09375 0.375 0  0.125 0.375 0  0.15625 0.375 0  0.1875 0.375 0  0.21875 0.375 0  0.25 0.375 0  0.28125 0.375 0  0.3125 0.375 0  0.34375 0.375 0  0.375 0.375 0  0.40625 0.375 0  0.4375 0.375 0  0.46875 0.375 0  0.5 0.375 0  0.53125 0.375 0  0.5625 0.375 0  0.59375 0.375 0  0.625 0.375 0  0.65625 0.375 0  0.6875 0.375 0  0.71875 0.375 0  0.75 0.375 0  0.78125 0.375 0  0.8125 0.375 0  0.84375 0.375 0  0.875 0.375 0  0.90625 0.375 0  0.9375 0.375 0  0.96875 0.375 0  1 0.375 0  0 0.40625 0  0.03125 0.40625 0  0.0625 0.40625 0  0.09375 0.40625 0  0.125 0.40625 0  0.15625 0.40625 0  0.1875 0.40625 0  0.21875 0.40625 0  0.25 0.40625 0  0.28125 0.40625 0  0.3125 0.40625 0  0.34375 0.40625 0  0.375 0.40625 0  0.40625 0.40625 0  0.4375 0.40625 0  0.46875 0.40625 0  0.5 0.40625 0  0.53125 0.40625 0  0.5625 0.40625 0  0.59375 0.40625 0  0.625 0.40625 0  0.65625 0.40625 0  0.6875 0.40625 0  0.71875 0.40625 0  0.75 0.40625 0  0.78125 0.40625 0  0.8125 0.40625 0  0.84375 0.40625 0  0.875 0.40625 0  0.90625 0.40625 0  0.9375 0.40625 0  0.96875 0.40625 0  1 0.40625 0  0 0.4375 0  0.03125 0.4375 0  0.0625 0.4375 0  0.09375 0.4375 0  0.125 0.4375 0  0.15625 0.4375 0  0.1875 0.4375 0  0.21875 0.4375 0  0.25 0.4375 0  0.28125 0.4375 0  0.3125 0.4375 0  0.34375 0.4375 0  0.375 0.4375 0  0.40625 0.4375 0  0.4375 0.4375 0  0.46875 0.4375 0  0.5 0.4375 0  0.53125 0.4375 0  0.5625 0.4375 0  0.59375 0.4375 0  0.625 0.4375 0  0.65625 0.4375 0  0.6875 0.4375 0  0.71875 0.4375 0  0.75 0.4375 0  0.78125 0.4375 0  0.8125 0.4375 0  0.84375 0.4375 0  0.875 0.4375 0  0.90625 0.4375 0  0.9375 0.4375 0  0.96875 0.4375 0  1 0.4375 0  0 0.46875 0  0.03125 0.46875 0  0.0625 0.46875 0  0.09375 0.46875 0  0.125 0.46875 0  0.15625 0.46875 0  0.1875 0.46875 0  0.21875 0.46875 0  0.25 0.46875 0  0.28125 0.46875 0  0.3125 0.46875 0  0.34375 0.46875 0  0.375 0.46875 0  0.40625 0.46875 0  0.4375 0.46875 0  0.46875 0.46875 0  0.5 0.46875 0  0.53125 0.46875 0  0.5625 0.46875 0  0.59375 0.46875 0  0.625 0.46875 0  0.65625 0.46875 0  0.6875 0.46875 0  0.71875 0.46875 0  0.75 0.46875 0  0.78125 0.46875 0  0.8125 0.46875 0  0.84375 0.46875 0  0.875 0.46875 0  0.90625 0.46875 0  0.9375 0.46875 0  0.96875 0.46875 0  1 0.46875 0  0 0.5 0  0.03125 0.5 0  0.0625 0.5 0  0.09375 0.5 0  0.125 0.5 0  0.15625 0.5 0  0.1875 0.5 0  0.21875 0.5 0  0.25 0.5 0  0.28125 0.5 0  0.3125 0.5 0  0.34375 0.5 0  0.375 0.5 0  0.40625 0.5 0  0.4375 0.5 0  0.46875 0.5 0  0.5 0.5 0  0.53125 0.5 0  0.5625 0.5 0  0.59375 0.5 0  0.625 0.5 0  0.65625 0.5 0  0.6875 0.5 0  0.71875 0.5 0  0.75 0.5 0  0.78125 0.5 0  0.8125 0.5 0  0.84375 0.5 0  0.875 0.5 0  0.90625 0.5 0  0.9375 0.5 0  0.96875 0.5 0  1 0.5 0  0 0.53125 0  0.03125 0.53125 0  0.0625 0.53125 0  0.09375 0.53125 0  0.125 0.53125 0  0.15625 0.53125 0  0.1875 0.53125 0  0.21875 0.53125 0  0.25 0.53125 0  0.28125 0.53125 0  0.3125 0.53125 0  0.34375 0.53125 0  0.375 0.53125 0  0.40625 0.53125 0  0.4375 0.53125 0  0.46875 0.53125 0  0.5 0.53125 0  0.53125 0.53125 0  0.5625 0.53125 0  0.59375 0.53125 0  0.625 0.53125 0  0.65625 0.53125 0  0.6875 0.53125 0  0.71875 0.53125 0  0.75 0.53125 0  0.78125 0.531
[...]
<PointData  Scalars="u"> 
<DataArray  type="Float64"  Name="u"  format="ascii">0.0000000000000000e+00  0.0000000000000000e+00  0.0000000000000000e+00  0.0000000000000000e+00  0.0000000000000000e+00  0.0000000000000000e+00  0.0000000000000000e+00  0.0000000000000000e+00  0.0000000000000000e+00  0.0000000000000000e+00  0.0000000000000000e+00  0.0000000000000000e+00  0.0000000000000000e+00  0.0000000000000000e+00  0.0000000000000000e+00  0.0000000000000000e+00  0.0000000000000000e+00  0.0000000000000000e+00  0.0000000000000000e+00  0.0000000000000000e+00  0.0000000000000000e+00  0.0000000000000000e+00  0.0000000000000000e+00  0.0000000000000000e+00  0.0000000000000000e+00  0.0000000000000000e+00  0.0000000000000000e+00  0.0000000000000000e+00  0.0000000000000000e+00  0.0000000000000000e+00  0.0000000000000000e+00  0.0000000000000000e+00  0.0000000000000000e+00  0.0000000000000000e+00  1.4421530858374693e-02  2.8757233883518335e-02  4.2897784081524108e-02  5.6678389235587788e-02  6.9862956461478706e-02  8.2146333667815860e-02  9.3184198436515348e-02  1.0265294011350252e-01  1.1033014759036329e-01  1.1618091181482659e-01  1.2040776177961773e-01  1.2339738957598297e-01  1.2559241560775647e-01  1.2738563956477142e-01  1.2906580105202753e-01  1.3079682591842451e-01  1.3260521821636209e-01  1.3436068961259651e-01  1.3575083473778143e-01  1.3626855690744757e-01  1.3524593711457567e-01  1.3196515271610532e-01  1.2584701888610689e-01  1.1670304785161882e-01  1.0490631411400179e-01  9.1219464475081488e-02  7.6432928373907430e-02  6.1151603765169454e-02  4.5748779343068875e-02  3.0404447537934153e-02  1.5165380854790224e-02  0.0000000000000000e+00  0.0000000000000000e+00  2.8873684186706251e-02  5.7607205550886650e-02  8.6006300846881517e-02  1.1375792061521914e-01  1.4038879538085022e-01  1.6526030894260571e-01  1.8762571530060645e-01  2.0675890069358702e-01  2.2212963962589916e-01  2.3361787080554858e-01  2.4168023801858782e-01  2.4721573420283810e-01  2.5121254773273349e-01  2.5450811953592045e-01  2.5769897594368640e-01  2.6112467808702716e-01  2.6485760158064198e-01  2.6866351883219591e-01  2.7193239629289012e-01  2.7361958640500622e-01  2.7228266463067052e-01  2.6630192947411147e-01  2.5427031830308999e-01  2.3564069083519723e-01  2.1132863116664904e-01  1.8321678991405776e-01  1.5309504220423725e-01  1.2221617233886849e-01  9.1286736156240333e-02  6.0606057440964090e-02  3.0212996578527211e-02  0.0000000000000000e+00  0.0000000000000000e+00  4.3362791306882219e-02  8.6593173548694613e-02  1.2946905209285306e-01  1.7157180349176701e-01  2.1219838503540805e-01  2.5032280177708777e-01  2.8467104801027121e-01  3.1394299702311168e-01  3.3708877674659049e-01  3.5373640938333351e-01  3.6472741370237982e-01  3.7182036864580581e-01  3.7678281868697600e-01  3.8098187033567260e-01  3.8533425186089509e-01  3.9036336453070908e-01  3.9622658009264788e-01  4.0265664533582884e-01  4.0880886124174243e-01  4.1307109641401568e-01  4.1301519126554270e-01  4.0573988187749022e-01  3.8837144756146724e-01  3.5940375163327071e-01  3.2078456196151434e-01  2.7656575227015184e-01  2.2997124992006848e-01  1.8290432326826706e-01  1.3626242665687208e-01  9.0316456123758854e-02  4.4983866262545830e-02  0.0000000000000000e+00  0.0000000000000000e+00  5.7832133249437576e-02  1.1563691598940655e-01  1.7326332911450953e-01  2.3027662184317063e-01  2.8578590394597403e-01  3.3830827043636058e-01  3.8582740899763585e-01  4.2619978939808550e-01  4.5743358337916529e-01  4.7836986804209719e-01  4.9052491810407872e-01  4.9741396361208695e-01  5.0198256868612234e-01  5.0616911445810708e-01  5.1114783899716976e-01  5.1759547295994468e-01  5.2581212197625671e-01  5.3565227419002415e-01  5.4623231391991423e-01  5.5543192478084891e-01  5.5950979431608094e-01  5.5380099099266289e-01  5.3264294420024894e-01  4.9149078966014320e-01  4.3466114383887272e-01  3.7128491390438539e-01  3.0649551485299764e-01  2.4252191447234450e-01  1.8006896859068680e-01  1.1910544953837172e-01  5.9257633898791365e-02  0.0000000000000000e+00  0.0000000000000000e+00  7.2126847284109896e-02  1.4446165840449432e-01  2.1707572144421280e-01  2.8969190224506020e-01  3.6137166027422785e-01  4.3012464033067910e-01  4.9279702379493684e-01  5.4613490498394246e-01  5.8653455372327934e-01  6.1021155632116675e-01  6.2002110639369912e-01  6.2378288619420852e-01  6.2604067165202659e-01  6.2904936287665958e-01  6.3396674431537436e-01  6.4149768960198639e-01  6.5215217760505184e-01  6.6620008591347879e-01  6.8322367329168088e-01  7.0099325817802005e-01  7.1378032031633609e-01  7.1526061359756854e-01  6.9490488854276455e-01  6.3740490100126157e-01  5.5346260271673386e-01  4.6605205710798814e-01  3.8109608425196490e-01  2.9975739081300190e-01  2.2175713294415714e-01  1.4636968972067591e-01  7.2742960625393552e-02  0.0000000000000000e+00  0.0000000000000000e+00  8.5961742528201115e-02  1.7250802489653669e-01  2.6013370334438457e-01  3.4903228377923656e-01  4.3861246958553862e-01  5.2649959130102852e-01  6.0735594208069343e-01  6.7708539460736727e-01  7.3032703267378374e-01  7.5386586886291984e-01  7.5354663100179764e-01  7.4969126693001209e-01  7.4742890839012610e-01  7.4812545555823406e-01  7.5227045475672738e-01  7.6033413187165066e-01  7.7307816832275245e-01  7.9163372276140065e-01  8.1717653169496496e-01  8.4907215945762493e-01  8.7673919603763761e-01  8.8586248191404715e-01  8.7167029843050714e-01  7.9732950998100127e-01  6.7363442628421588e-01  5.5663318337078149e-01  4.5069318300747990e-01  3.5258592897848229e-01  2.6005632654368643e-01  1.7136940872703213e-01  8.5099547584918583e-02  0.0000000000000000e+00  0.0000000000000000e+00  9.8911893384708571e-02  1.9887604318809565e-01  3.0100944348995579e-01  4.0645636893517384e-01  5.1597343683603059e-01  6.2799762427912020e-01  7.3083442400463283e-01  8.1209009503122365e-01  8.8125401360984967e-01  9.0878919059447905e-01  8.8810382156555312e-01  8.7161114689314556e-01  8.6354433738086878e-01  8.6148363486464152e-01  8.6438892112237076e-01  8.7218121152594763e-01  8.8579067669040079e-01  9.0752715417217522e-01  9.4201025497659630e-01  9.8837058129844590e-01  1.0350096692761785e+00  1.0464220913821127e+00  1.0153477770622097e+00  9.2365325153014799e-01  7.7454525812775987e-01  6.3407022169726046e-01  5.1081406617898495e-01  3.9858055373885320e-01  2.9360447560717584e-01  1.9336350767252869e-01  9.5999004089547590e-02  0.0000000000000000e+00  0.0000000000000000e+00  1.1046520179158523e-01  2.2238314530994258e-01  3.3751392270920672e-01  4.5835749219489730e-01  5.8894615062455280e-01  7.2637766721006680e-01  8.5321859214068574e-01  9.3622675431198432e-01  9.9075759624367787e-01  1.0288765611296231e+00  1.0054792916612263e+00  9.8228353794813472e-01  9.7095676425629585e-01  9.6724701645737599e-01  9.6900660062650479e-01  9.7555854460251035e-01  9.8762499047122898e-01  1.0077504763479432e+00  1.0417959981984397e+00  1.0939168948209705e+00  1.1348106932368105e+00  1.1456165797930784e+00  1.1058672230708160e+00  1.0039598730253696e+00  8.4387305239207322e-01  6.9191483064895110e-01  5.5805632153234253e-01  4.3590596799687376e-01  3.2139915594888480e-01  2.1182169352929392e-01  1.0521088305158709e-01  0.0000000000000000e+00  0.0000000000000000e+00  1.2018360727822032e-01  2.4190695431295522e-01  3.6712152463647835e-01  4.9887247291664716e-01  6.4293332709854978e-01  8.0269159597095485e-01  9.3639468981759089e-01  1.0154927071444968e+00  1.0731115118891230e+00  1.1169816067665452e+00  1.0992469639011999e+00  1.0778794246235583e+00  1.0677005449720405e+00  1.0645754067312687e+00  1.0658932084229769e+00  1.0704537662620928e+00  1.0783438084532018e+00  1.0908352582398508e+00  1.1100463409113130e+00  1.1369839401221560e+00  1.1607118659659328e+00  1.1712229541546340e+00  1.1344734384216837e+00  1.0387371014987379e+00  8.8188525000336360e-01  7.2909678568763447e-01  5.9158681387049850e-01  4.6406316487645816e-01  3.4316377385248703e-01  2.2659955977668061e-01  1.1267331817959327e-01  0.0000000000000000e+00  0.0000000000000000e+00  1.2795141212453323e-01  2.5710992405124428e-01  3.8891789006841976e-01  5.2531123898251497e-01  6.6890890511225087e-01  8.2224130900310677e-01  9.7086900849508473e-01  1.0725349505325488e+00  1.1353417552116294e+00  1.1828724023827111e+00  1.1729201513054515e+00  1.1587584817655270e+00  1.1540227367600349e+00  1.1541833042684075e+00  1.1562940008896248e+00  1.1587616477794369e+00  1.1611390129386796e+00  1.1637581623832010e+00  1.1669424999900178e+00  1.1694014063275071e+00  1.1657491014149568e+00  1.1499371440914958e+00  1.1079923059806798e+00  1.0308885437160986e+00  8.9258054660632780e-01  7.4835824101063719e-01  6.1305017142047291e-01  4.8400396943341301e-01  3.5943912436086528e-01  2.3798884315946942e-01  1.1851399632678072e-01  0.0000000000000000e+00  0.0000000000000000e+00  1.3408133141981443e-01  2.6879470241229508e-01  4.0480056970599099e-01  5.4272265366129191e-01  6.8278071892453029e-01  8.2356025557609625e-01  9.5892326864132915e-01  1.0746825490074206e+00  1.1688240572730768e+00  1.2222395772502761e+00  1.2268516786889496e+00  1.2264261265341900e+00  1.2318000324794052e+00  1.2382700502515165e+00  1.2428009701388707e+00  1.2436224376559757e+00  1.2401225777292517e+00  1.2324803468735639e+00  1.2208290949153975e+00  1.2040703080551827e+00  1.1789662696364844e+00  1.1407523402982440e+00  1.0827309935920577e+00  1.0006540859126636e+00  8.8601563224491542e-01  7.5607768220092975e-01  6.2615409838225744e-01  4.9784330542936622e-01  3.7141785982133796e-01  2.4663042441248456e-01  1.2301296055961139e-01  0.0000000000000000e+00  0.0000000000000000e+00  1.3913478635361848e-01  2.7829339635228789e-01  4.1741016025392014e-01  5.5615720363552013e-01  6.9358158976050344e-01  8.2741839038783160e-01  9.5320871555741638e-01  1.0646878402927911e+00  1.1590704139615962e+00  1.2263410892935573e+00  1.2617328141829989e+00  1.2843014831374842e+00  1.3045736455140156e+00  1.3204344017853102e+00  1.3291795102944910e+00  1.3289775714950691e+00  1.3194230480610223e+00  1.3013774694558164e+00  1.2759705023540178e+00  1.2432105328573453e+00  1.2014154294774237e+00  1.1475402686414620e+00  1.0778201952391000e+00  9.8954480563226854e-01  8.8172063189660776e-01  7.6122522596255637e-01  6.3556910167465042e-01  5.0817561395386490e-01  3.8056641171206829e-01  2.5331923827719710e-01  1.2652001272738828e-01  0.0000000000000000e+00  0.0000000000000000e+00  1.4370892126705714e-01  2.8692133577668771e-01  4.2901293646106720e-01  5.6906555167277806e-01  7.0564267144292914e-01  8.3652051145913664e-01  9.5855275486989322e-01  1.0681444187348479e+00  1.1624905371169669e+00  1.2382150107602545e+00  1.2952682715791457e+00  1.3403011051388305e+00  1.3775908847017568e+00  1.4055419841731844e+00  1.4203346610727552e+00  1.4195334751241329e+00  1.4030996231820176e+00  1.3735708948638945e+00  1.3344570614763500e+00  1.2874440093345876e+00  1.2320888782936943e+00  1.1664433934331915e+00  1.0879248581735548e+00  9.9471673110115988e-01  8.8719120461205081e-01  7.6905008169331157e-01  6.4467645655521344e-01  5.1711047875244243e-01  3.8815904199715162e-01  2.5877270527775936e-01  1.2935707238594554e-01  0.0000000000000000e+00  0.0000000000000000e+00  1.4831179837046740e-01  2.9573614439238061e-01  4.4125363368132886e-01  5.8358188790368271e-01  7.2107448330275203e-01  8.5169332113549667e-01  9.7314541147238331e-01  1.0832845754945319e+00  1.1806619077057476e+00  1.2646575804663220e+00  1.3365668671350499e+00  1.3996765873935602e+00  1.4554853053828711e+00  1.4992734866800099e+00  1.5225184152268991e+00  1.5211811264206454e+00  1.4954078531384885e+00  1.4510011452665579e+00  1.3966280689349360e+00  1.3359490718766154e+00  1.2691417650482131e+00  1.1944971866475287e+00  1.1092317015241502e+00  1.0110128327626995e+00  9.0043789989955947e-01  7.8066452116705731e-01  6.5494910734099709e-01  5.2582218586811258e-01  3.9499083399660612e-01  2.6346453570475259e-01  1.3174237097979694e-01  0.0000000000000000e+00  0.0000000000000000e+00  1.5331774704608947e-01  3.0549357862434146e-01  4.5524285777997392e-01  6.0102371295863766e-01  7.4101330043372082e-01  8.7323062617626790e-01  9.9584410172257987e-01  1.1076151062873953e+00  1.2083245816639796e+00  1.2990235515512727e+00  1.3822669686456763e+00  1.4617382021131000e+00  1.5405800471149798e+00  1.6085646398918236e+00  1.6442237726558342e+00  1.6422354967286084e+00  1.6014546893154891e+00  1.5337019153295772e+00  1.4606277461984574e+00  1.3863250697235538e+00  1.3099964669670345e+00  1.2293729878098536e+00  1.1399635470538234e+00  1.0364555515298961e+00  9.2003898206322399e-01  7.9577434776143174e-01  6.6659996484100226e-01  5.3462187119584803e-01  4.0131421370145370e-01  2.6755542789505909e-01  1.3375156864038398e-01  0.0000000000000000e+00  0.0000000000000000e+00  1.5895795749752070e-01  3.1666930806873200e-01  4.7169790047163052e-01  6.2227129105835333e-01  7.6627433578494908e-01  9.0148349170272146e-01  1.0260920583708288e+00  1.1393460967714097e+00  1.2420038906893829e+00  1.3365443611510053e+00  1.4271404456632670e+00  1.5195171340019074e+00  1.6213000158482818e+00  1.7246735954600283e+00  1.7779235802506232e+00  1.7764677210504616e+00  1.7190604204727340e+00  1.6166158513366231e+00  1.5210698364274902e+00  1.4342367271446435e+00  1.3509294874476692e+00  1.2690861813829968e+00  1.1811400454691139e+00  1.0715017274579473e+00  9.4457765639587543e-01  8.1330114547734755e-01  6.7898864582717866e-01  5.4311173168722293e-01  4.0686977578699046e-01  2.7088493050669044e-01  1.3530761391405638e-01  0.0000000000000000e+00  0.0000000000000000e+00  1.6530578991209197e-01  3.2945870467182847e-01  4.9101663383202027e-01  6.4798965526731012e-01  7.9774487795859306e-01  9.3730040167291850e-01  1.0642453075760252e+00  1.1778515159018093e+00  1.2796381941620794e+00  1.3735211342003231e+00  1.4654064443782508e+00  1.5626769121734583e+00  1.6747914276078699e+00  1.7949386799368698e+00  1.8601406448617668e+00  1.8604956452143671e+00  1.7958153857880295e+00  1.6770952592363373e+00  1.5676864144809524e+00  1.4738778537809394e+00  1.3859694851894391e+00  1.3007699761210498e+00  1.2201885063347297e+00  1.1103761192140071e+00  9.7043856118361804e-01  8.3128884297753514e-01  6.9082032496964929e-01  5.5029108456743703e-01  4.1092681321901886e-01  2.7298758563679748e-01  1.3618729305508828e-01  0.0000000000000000e+00  0.0000000000000000e+00  1.7222775670315413e-01  3.4369508636966917e-01  5.1321013309455354e-01  6.7866891932602091e-01  8.3663922022181336e-01  9.8247494566902671e-01  1.1120592476775502e+00  1.2241256507105935e+00  1.3207918366212958e+00  1.4077904291507597e+00  1.4932378150043324e+00  1.5855308994365447e+00  1.6943067024698852e+00  1.8138045860697207e+00  1.8805848039204007e+00  1.8829530135117145e+00  1.8203065756481580e+00  1.7023763181981513e+00  1.5932996652704496e+00  1.5026299199218052e+00  1.4136640657503554e+00  1.3135257196640708e+00  1.2145477244846663e+00  1.1058338158359944e+00  9.8234922901569111e-01  8.4791284412499290e-01  7.0052045592678247e-01  5.5458627017003304e-01  4.1229211013856387e-01  2.7311845096294790e-01  1.3604139476855845e-01  0.0000000000000000e+00  0.0000000000000000e+00  1.7928425698540557e-01  3.5863988505168309e-01  5.3760122168722591e-01  7.1437574367208190e-01  8.8463568699532047e-01  1.0403522711954476e+00  1.1734010233658079e+00  1.2814461983873409e+00  1.3669557354036177e+00  1.4386724860872682e+00  1.5089782060964210e+00  1.5862756734476833e+00  1.6770128976247189e+00  1.7789005025121027e+00  1.8386599143843951e+00  1.8436357497409113e+00  1.7935753828512597e+00  1.6927089303596028e+00  1.5948977518164258e+00  1.5144940940228531e+00  1.4377186381328670e+00  1.3206758022222498e+00  1.2045705469287065e+00  1.0923789291481385e+00  9.8195855753079631e-01  8.6471218195478450e-01  7.0649411962345521e-01  5.5348042931839636e-01  4.0924900354047156e-01  2.7030990041174596e-01  1.3444318315019663e-01  0.0000000000000000e+00  0.0000000000000000e+00  1.8559203484528303e-01  3.7262720444986791e-01  5.6214638753528001e-01  7.5388470294213605e-01  9.4381083880159933e-01  1.1169544303744154e+00  1.2553388731488695e+00  1.3565537790886810e+00  1.4219244234323196e+00  1.4657813353683589e+00  1.5123205918673743e+00  1.5678797049856628e+00  1.6324896194668481e+00  1.6997148674583242e+00  1.7448472267634740e+00  1.7526519827479841e+00  1.7211749440897428e+00  1.6538536594077291e+00  1.5733870833253565e+00  1.4974255401279497e+00  1.4271622734281635e+00  1.3123565386036677e+00  1.1865718236172649e+00  1.0734421053159988e+00  9.6510010825828452e-01  8.4971067535117384e-01  6.9494816622203692e-01  5.4180580143433976e-01  3.9961838109740933e-01  2.6358540043347267e-01  1.3100506118191574e-01  0.0000000000000000e+00  0.0000000000000000e+00  1.8972958080439342e-01  3.8266987025385257e-01  5.8225361230603656e-01  7.9220575934347648e-01  1.0060138597870527e+00  1.2039003810109872e+00  1.3495302862937486e+00  1.4422838538574565e+00  1.4830365977949196e+00  1.4847687171215413e+00  1.5011112335515360e+00  1.5347256087385233e+00  1.5793842263744704e+00  1.6263690428062554e+00  1.6619004867489089e+00  1.6744384871492339e+00  1.6582557328380017e+00  1.6120861900208519e+00  1.5416812906981450e+00  1.4593261824790495e+00  1.3762468805771597e+00  1.2804752150151626e+00  1.1518198573943721e+00  1.0360581312861887e+00  9.3203219845244778e-01  8.0133461408766027e-01  6.5949388174587076e-01  5.1740710769372267e-01  3.8255704005767388e-01  2.5257900338919803e-01  1.2558236206184037e-01  0.0000000000000000e+00  0.0000000000000000e+00  1.8989062898040859e-01  3.8451833352737691e-01  5.8960753987721248e-01  8.1340660226885297e-01  1.0500037185923534e+00  1.2482777501264672e+00  1.3912433448040864e+00  1.4743904633399048e+00  1.4975001304310585e+00  1.4734901558500770e+00  1.4670207729974876e+00  1.4848613850239714e+00  1.5181341197313032e+00  1.5584562997968769e+00  1.5957521012981390e+00  1.6186759103303443e+00  1.6191192862190222e+00  1.5885694859563986e+00  1.5162780220904515e+00  1.4166762397611399e+00  1.3131398273861710e+00  1.2070864983695211e+00  1.0901818985149869e+00  9.7339391601274261e-01  8.6257042718458132e-01  7.4142264317471740e-01  6.1209863629228400e-01  4.8407978184763817e-01  3.5939918115898911e-01  2.3779428566923280e-01  1.1835124679042910e-01  0.0000000000000000e+00  0.0000000000000000e+00  1.8453222589755433e-01  3.7430943411598017e-01  5.7577293440166488e-01  7.9838139305360600e-01  1.0379949002282669e+00  1.2328353364945956e+00  1.3671073854347460e+00  1.4406320445180674e+00  1.4532187598548543e+00  1.4189290476346124e+00  1.4030283539787594e+00  1.4140025366171354e+00  1.4441786049626648e+00  1.4877440661030077e+00  1.5379648633657024e+00  1.5792540725371453e+00  1.5948343799279296e+00  1.5808171733627210e+00  1.5025403961611699e+00  1.3727624047402149e+00  1.2478134103286871e+00  1.1302819193449678e+00  1.0146380470660190e+00  9.0142099879275672e-01  7.9052240606770063e-01  6.7721286481285037e-01  5.6137296646988288e-01  4.4584349088537228e-01  3.3202026441572641e-01  2.2009914534616964e-01  1.0965687757930513e-01  0.0000000000000000e+00  0.0000000000000000e+00  1.7316041320417278e-01  3.5083979775910329e-01  5.3833932391627382e-01  7.4293714184953918e-01  9.6643613037517762e-01  1.1528224118704666e+00  1.2780467763136683e+00  1.3419383869036769e+00  1.3500176364392424e+00  1.3203502108604330e+00  1.3067296593108828e+00  1.3185743991422112e+00  1.3513840587213031e+00  1.4047330068206072e+00  1.4732286847126741e+00  1.5394589032363777e+00  1.5639895194628415e+00  1.5413628431967856e+00  1.4547098379249881e+00  1.3088983097856024e+00  1.1705129303963449e+00  1.0475570557644511e+00  9.3312352402688992e-01  8.2404332247721257e-01  7.1822359674240599e-01  6.1328590594176835e-01  5.0850376413685994e-01  4.0447000513607223e-01  3.0168937942038021e-01  2.0023616915351192e-01  9.9834033503670191e-02  0.0000000000000000e+00  0.0000000000000000e+00  1.5654737696594004e-01  3.1606858140367283e-01  4.8150674479238931e-01  6.5539367826862616e-01  8