<?xml version="1.0"?>
<VTKFile type="UnstructuredGrid"  version="0.1"  >
<UnstructuredGrid>
<Piece  NumberOfPoints="1089" NumberOfCells="2048">
<Points>
<DataArray  type="Float64"  NumberOfComponents="3"  format="ascii">0 0 0  0.03125 0 0  0.0625 0 0  0.09375 0 0  0.125 0 0  0.15625 0 0  0.1875 0 0  0.21875 0 0  0.25 0 0  0.28125 0 0  0.3125 0 0  0.34375 0 0  0.375 0 0  0.40625 0 0  0.4375 0 0  0.46875 0 0  0.5 0 0  0.53125 0 0  0.5625 0 0  0.59375 0 0  0.625 0 0  0.65625 0 0  0.6875 0 0  0.71875 0 0  0.75 0 0  0.78125 0 0  0.8125 0 0  0.84375 0 0  0.875 0 0  0.90625 0 0  0.9375 0 0  0.96875 0 0  1 0 0  0 0.03125 0  0.03125 0.03125 0  0.0625 0.03125 0  0.09375 0.03125 0  0.125 0.03125 0  0.15625 0.03125 0  0.1875 0.03125 0  0.21875 0.03125 0  0.25 0.03125 0  0.28125 0.03125 0  0.3125 0.03125 0  0.34375 0.03125 0  0.375 0.03125 0  0.40625 0.03125 0  0.4375 0.03125 0  0.46875 0.03125 0  0.5 0.03125 0  0.53125 0.03125 0  0.5625 0.03125 0  0.59375 0.03125 0  0.625 0.03125 0  0.65625 0.03125 0  0.6875 0.03125 0  0.71875 0.03125 0  0.75 0.03125 0  0.78125 0.03125 0  0.8125 0.03125 0  0.84375 0.03125 0  0.875 0.03125 0  0.90625 0.03125 0  0.9375 0.03125 0  0.96875 0.03125 0  1 0.03125 0  0 0.0625 0  0.03125 0.0625 0  0.0625 0.0625 0  0.09375 0.0625 0  0.125 0.0625 0  0.15625 0.0625 0  0.1875 0.0625 0  0.21875 0.0625 0  0.25 0.0625 0  0.28125 0.0625 0  0.3125 0.0625 0  0.34375 0.0625 0  0.375 0.0625 0  0.40625 0.0625 0  0.4375 0.0625 0  0.46875 0.0625 0  0.5 0.0625 0  0.53125 0.0625 0  0.5625 0.0625 0  0.59375 0.0625 0  0.625 0.0625 0  0.65625 0.0625 0  0.6875 0.0625 0  0.71875 0.0625 0  0.75 0.0625 0  0.78125 0.0625 0  0.8125 0.0625 0  0.84375 0.0625 0  0.875 0.0625 0  0.90625 0.0625 0  0.9375 0.0625 0  0.96875 0.0625 0  1 0.0625 0  0 0.09375 0  0.03125 0.09375 0  0.0625 0.09375 0  0.09375 0.09375 0  0.125 0.09375 0  0.15625 0.09375 0  0.1875 0.09375 0  0.21875 0.09375 0  0.25 0.09375 0  0.28125 0.09375 0  0.3125 0.09375 0  0.34375 0.09375 0  0.375 0.09375 0  0.40625 0.09375 0  0.4375 0.09375 0  0.46875 0.09375 0  0.5 0.09375 0  0.53125 0.09375 0  0.5625 0.09375 0  0.59375 0.09375 0  0.625 0.09375 0  0.65625 0.09375 0  0.6875 0.09375 0  0.71875 0.09375 0  0.75 0.09375 0  0.78125 0.09375 0  0.8125 0.09375 0  0.84375 0.09375 0  0.875 0.09375 0  0.90625 0.09375 0  0.9375 0.09375 0  0.96875 0.09375 0  1 0.09375 0  0 0.125 0  0.03125 0.125 0  0.0625 0.125 0  0.09375 0.125 0  0.125 0.125 0  0.15625 0.125 0  0.1875 0.125 0  0.21875 0.125 0  0.25 0.125 0  0.28125 0.125 0  0.3125 0.125 0  0.34375 0.125 0  0.375 0.125 0  0.40625 0.125 0  0.4375 0.125 0  0.46875 0.125 0  0.5 0.125 0  0.53125 0.125 0  0.5625 0.125 0  0.59375 0.125 0  0.625 0.125 0  0.65625 0.125 0  0.6875 0.125 0  0.71875 0.125 0  0.75 0.125 0  0.78125 0.125 0  0.8125 0.125 0  0.84375 0.125 0  0.875 0.125 0  0.90625 0.125 0  0.9375 0.125 0  0.96875 0.125 0  1 0.125 0  0 0.15625 0  0.03125 0.15625 0  0.0625 0.15625 0  0.09375 0.15625 0  0.125 0.15625 0  0.15625 0.15625 0  0.1875 0.15625 0  0.21875 0.15625 0  0.25 0.15625 0  0.28125 0.15625 0  0.3125 0.15625 0  0.34375 0.15625 0  0.375 0.15625 0  0.40625 0.15625 0  0.4375 0.15625 0  0.46875 0.15625 0  0.5 0.15625 0  0.53125 0.15625 0  0.5625 0.15625 0  0.59375 0.15625 0  0.625 0.15625 0  0.65625 0.15625 0  0.6875 0.15625 0  0.71875 0.15625 0  0.75 0.15625 0  0.78125 0.15625 0  0.8125 0.15625 0  0.84375 0.15625 0  0.875 0.15625 0  0.90625 0.15625 0  0.9375 0.15625 0  0.96875 0.15625 0  1 0.15625 0  0 0.1875 0  0.03125 0.1875 0  0.0625 0.1875 0  0.09375 0.1875 0  0.125 0.1875 0  0.15625 0.1875 0  0.1875 0.1875 0  0.21875 0.1875 0  0.25 0.1875 0  0.28125 0.1875 0  0.3125 0.1875 0  0.34375 0.1875 0  0.375 0.1875 0  0.40625 0.1875 0  0.4375 0.1875 0  0.46875 0.1875 0  0.5 0.1875 0  0.53125 0.1875 0  0.5625 0.1875 0  0.59375 0.1875 0  0.625 0.1875 0  0.65625 0.1875 0  0.6875 0.1875 0  0.71875 0.1875 0  0.75 0.1875 0  0.78125 0.1875 0  0.8125 0.1875 0  0.84375 0.1875 0  0.875 0.1875 0  0.90625 0.1875 0  0.9375 0.1875 0  0.96875 0.1875 0  1 0.1875 0  0 0.21875 0  0.03125 0.21875 0  0.0625 0.21875 0  0.09375 0.21875 0  0.125 0.21875 0  0.15625 0.21875 0  0.1875 0.21875 0  0.21875 0.21875 0  0.25 0.21875 0  0.28125 0.21875 0  0.3125 0.21875 0  0.34375 0.21875 0  0.375 0.21875 0  0.40625 0.21875 0  0.4375 0.21875 0  0.46875 0.21875 0  0.5 0.21875 0  0.53125 0.21875 0  0.5625 0.21875 0  0.59375 0.21875 0  0.625 0.21875 0  0.65625 0.21875 0  0.6875 0.21875 0  0.71875 0.21875 0  0.75 0.21875 0  0.78125 0.21875 0  0.8125 0.21875 0  0.84375 0.21875 0  0.875 0.21875 0  0.90625 0.21875 0  0.9375 0.21875 0  0.96875 0.21875 0  1 0.21875 0  0 0.25 0  0.03125 0.25 0  0.0625 0.25 0  0.09375 0.25 0  0.125 0.25 0  0.15625 0.25 0  0.1875 0.25 0  0.21875 0.25 0  0.25 0.25 0  0.28125 0.25 0  0.3125 0.25 0  0.34375 0.25 0  0.375 0.25 0  0.40625 0.25 0  0.4375 0.25 0  0.46875 0.25 0  0.5 0.25 0  0.53125 0.25 0  0.5625 0.25 0  0.59375 0.25 0  0.625 0.25 0  0.65625 0.25 0  0.6875 0.25 0  0.71875 0.25 0  0.75 0.25 0  0.78125 0.25 0  0.8125 0.25 0  0.84375 0.25 0  0.875 0.25 0  0.90625 0.25 0  0.9375 0.25 0  0.96875 0.25 0  1 0.25 0  0 0.28125 0  0.03125 0.28125 0  0.0625 0.28125 0  0.09375 0.28125 0  0.125 0.28125 0  0.15625 0.28125 0  0.1875 0.28125 0  0.21875 0.28125 0  0.25 0.28125 0  0.28125 0.28125 0  0.3125 0.28125 0  0.34375 0.28125 0  0.375 0.28125 0  0.40625 0.28125 0  0.4375 0.28125 0  0.46875 0.28125 0  0.5 0.28125 0  0.53125 0.28125 0  0.5625 0.28125 0  0.59375 0.28125 0  0.625 0.28125 0  0.65625 0.28125 0  0.6875 0.28125 0  0.71875 0.28125 0  0.75 0.28125 0  0.78125 0.28125 0  0.8125 0.28125 0  0.84375 0.28125 0  0.875 0.28125 0  0.90625 0.28125 0  0.9375 0.28125 0  0.96875 0.28125 0  1 0.28125 0  0 0.3125 0  0.03125 0.3125 0  0.0625 0.3125 0  0.09375 0.3125 0  0.125 0.3125 0  0.15625 0.3125 0  0.1875 0.3125 0  0.21875 0.3125 0  0.25 0.3125 0  0.28125 0.3125 0  0.3125 0.3125 0  0.34375 0.3125 0  0.375 0.3125 0  0.40625 0.3125 0  0.4375 0.3125 0  0.46875 0.3125 0  0.5 0.3125 0  0.53125 0.3125 0  0.5625 0.3125 0  0.59375 0.3125 0  0.625 0.3125 0  0.65625 0.3125 0  0.6875 0.3125 0  0.71875 0.3125 0  0.75 0.3125 0  0.78125 0.3125 0  0.8125 0.3125 0  0.84375 0.3125 0  0.875 0.3125 0  0.90625 0.3125 0  0.9375 0.3125 0  0.96875 0.3125 0  1 0.3125 0  0 0.34375 0  0.03125 0.34375 0  0.0625 0.34375 0  0.09375 0.34375 0  0.125 0.34375 0  0.15625 0.34375 0  0.1875 0.34375 0  0.21875 0.34375 0  0.25 0.34375 0  0.28125 0.34375 0  0.3125 0.34375 0  0.34375 0.34375 0  0.375 0.34375 0  0.40625 0.34375 0  0.4375 0.34375 0  0.46875 0.34375 0  0.5 0.34375 0  0.53125 0.34375 0  0.5625 0.34375 0  0.59375 0.34375 0  0.625 0.34375 0  0.65625 0.34375 0  0.6875 0.34375 0  0.71875 0.34375 0  0.75 0.34375 0  0.78125 0.34375 0  0.8125 0.34375 0  0.84375 0.34375 0  0.875 0.34375 0  0.90625 0.34375 0  0.9375 0.34375 0  0.96875 0.34375 0  1 0.34375 0  0 0.375 0  0.03125 0.375 0  0.0625 0.375 0  0.09375 0.375 0  0.125 0.375 0  0.15625 0.375 0  0.1875 0.375 0  0.21875 0.375 0  0.25 0.375 0  0.28125 0.375 0  0.3125 0.375 0  0.34375 0.375 0  0.375 0.375 0  0.40625 0.375 0  0.4375 0.375 0  0.46875 0.375 0  0.5 0.375 0  0.53125 0.375 0  0.5625 0.375 0  0.59375 0.375 0  0.625 0.375 0  0.65625 0.375 0  0.6875 0.375 0  0.71875 0.375 0  0.75 0.375 0  0.78125 0.375 0  0.8125 0.375 0  0.84375 0.375 0  0.875 0.375 0  0.90625 0.375 0  0.9375 0.375 0  0.96875 0.375 0  1 0.375 0  0 0.40625 0  0.03125 0.40625 0  0.0625 0.40625 0  0.09375 0.40625 0  0.125 0.40625 0  0.15625 0.40625 0  0.1875 0.40625 0  0.21875 0.40625 0  0.25 0.40625 0  0.28125 0.40625 0  0.3125 0.40625 0  0.34375 0.40625 0  0.375 0.40625 0  0.40625 0.40625 0  0.4375 0.40625 0  0.46875 0.40625 0  0.5 0.40625 0  0.53125 0.40625 0  0.5625 0.40625 0  0.59375 0.40625 0  0.625 0.40625 0  0.65625 0.40625 0  0.6875 0.40625 0  0.71875 0.40625 0  0.75 0.40625 0  0.78125 0.40625 0  0.8125 0.40625 0  0.84375 0.40625 0  0.875 0.40625 0  0.90625 0.40625 0  0.9375 0.40625 0  0.96875 0.40625 0  1 0.40625 0  0 0.4375 0  0.03125 0.4375 0  0.0625 0.4375 0  0.09375 0.4375 0  0.125 0.4375 0  0.15625 0.4375 0  0.1875 0.4375 0  0.21875 0.4375 0  0.25 0.4375 0  0.28125 0.4375 0  0.3125 0.4375 0  0.34375 0.4375 0  0.375 0.4375 0  0.40625 0.4375 0  0.4375 0.4375 0  0.46875 0.4375 0  0.5 0.4375 0  0.53125 0.4375 0  0.5625 0.4375 0  0.59375 0.4375 0  0.625 0.4375 0  0.65625 0.4375 0  0.6875 0.4375 0  0.71875 0.4375 0  0.75 0.4375 0  0.78125 0.4375 0  0.8125 0.4375 0  0.84375 0.4375 0  0.875 0.4375 0  0.90625 0.4375 0  0.9375 0.4375 0  0.96875 0.4375 0  1 0.4375 0  0 0.46875 0  0.03125 0.46875 0  0.0625 0.46875 0  0.09375 0.46875 0  0.125 0.46875 0  0.15625 0.46875 0  0.1875 0.46875 0  0.21875 0.46875 0  0.25 0.46875 0  0.28125 0.46875 0  0.3125 0.46875 0  0.34375 0.46875 0  0.375 0.46875 0  0.40625 0.46875 0  0.4375 0.46875 0  0.46875 0.46875 0  0.5 0.46875 0  0.53125 0.46875 0  0.5625 0.46875 0  0.59375 0.46875 0  0.625 0.46875 0  0.65625 0.46875 0  0.6875 0.46875 0  0.71875 0.46875 0  0.75 0.46875 0  0.78125 0.46875 0  0.8125 0.46875 0  0.84375 0.46875 0  0.875 0.46875 0  0.90625 0.46875 0  0.9375 0.46875 0  0.96875 0.46875 0  1 0.46875 0  0 0.5 0  0.03125 0.5 0  0.0625 0.5 0  0.09375 0.5 0  0.125 0.5 0  0.15625 0.5 0  0.1875 0.5 0  0.21875 0.5 0  0.25 0.5 0  0.28125 0.5 0  0.3125 0.5 0  0.34375 0.5 0  0.375 0.5 0  0.40625 0.5 0  0.4375 0.5 0  0.46875 0.5 0  0.5 0.5 0  0.53125 0.5 0  0.5625 0.5 0  0.59375 0.5 0  0.625 0.5 0  0.65625 0.5 0  0.6875 0.5 0  0.71875 0.5 0  0.75 0.5 0  0.78125 0.5 0  0.8125 0.5 0  0.84375 0.5 0  0.875 0.5 0  0.90625 0.5 0  0.9375 0.5 0  0.96875 0.5 0  1 0.5 0  0 0.53125 0  0.03125 0.53125 0  0.0625 0.53125 0  0.09375 0.53125 0  0.125 0.53125 0  0.15625 0.53125 0  0.1875 0.53125 0  0.21875 0.53125 0  0.25 0.53125 0  0.28125 0.53125 0  0.3125 0.53125 0  0.34375 0.53125 0  0.375 0.53125 0  0.40625 0.53125 0  0.4375 0.53125 0  0.46875 0.53125 0  0.5 0.53125 0  0.53125 0.53125 0  0.5625 0.53125 0  0.59375 0.53125 0  0.625 0.53125 0  0.65625 0.53125 0  0.6875 0.53125 0  0.71875 0.53125 0  0.75 0.53125 0  0.78125 0.531
[...]
<PointData  Scalars="u"> 
<DataArray  type="Float64"  Name="u"  format="ascii">0.0000000000000000e+00  0.0000000000000000e+00  0.0000000000000000e+00  0.0000000000000000e+00  0.0000000000000000e+00  0.0000000000000000e+00  0.0000000000000000e+00  0.0000000000000000e+00  0.0000000000000000e+00  0.0000000000000000e+00  0.0000000000000000e+00  0.0000000000000000e+00  0.0000000000000000e+00  0.0000000000000000e+00  0.0000000000000000e+00  0.0000000000000000e+00  0.0000000000000000e+00  0.0000000000000000e+00  0.0000000000000000e+00  0.0000000000000000e+00  0.0000000000000000e+00  0.0000000000000000e+00  0.0000000000000000e+00  0.0000000000000000e+00  0.0000000000000000e+00  0.0000000000000000e+00  0.0000000000000000e+00  0.0000000000000000e+00  0.0000000000000000e+00  0.0000000000000000e+00  0.0000000000000000e+00  0.0000000000000000e+00  0.0000000000000000e+00  0.0000000000000000e+00  1.2073867616630088e-02  2.4094646057333014e-02  3.5980956411863892e-02  4.7597186257275007e-02  5.8736288464401869e-02  6.9120090964662165e-02  7.8426839800234613e-02  8.6348908145316303e-02  9.2671982620758972e-02  9.7361929641594139e-02  1.0061702130513230e-01  1.0281610482061894e-01  1.0439094085778959e-01  1.0572257113766188e-01  1.0709044949949527e-01  1.0865493563708753e-01  1.1044674193429968e-01  1.1234780668423641e-01  1.1406406065216868e-01  1.1510883820650830e-01  1.1483146361919767e-01  1.1252330442037481e-01  1.0760366368244570e-01  9.9874711657478840e-02  8.9698906536944858e-02  7.7825692970835553e-02  6.5023855618135590e-02  5.1868782966177793e-02  3.8700879178093166e-02  2.5667993060014393e-02  1.2787378606715709e-02  0.0000000000000000e+00  0.0000000000000000e+00  2.4198198486295244e-02  4.8319446045032431e-02  7.2226812743865249e-02  9.5666221193943080e-02  1.1822283388097170e-01  1.3931194355189797e-01  1.5823125892393264e-01  1.7428529098627593e-01  1.8695792175067122e-01  1.9612889308187326e-01  2.0224785602533804e-01  2.0620214056266878e-01  2.0896096688686430e-01  2.1133901980927264e-01  2.1391394118544518e-01  2.1701768928143919e-01  2.2073092053628535e-01  2.2484415898987031e-01  2.2878441199986624e-01  2.3154735454211214e-01  2.3172235222648133e-01  2.2770273303386698e-01  2.1806938154282604e-01  2.0224849482774146e-01  1.8114020286259450e-01  1.5661440638699259e-01  1.3042450366670510e-01  1.0376483570020029e-01  7.7274586081288163e-02  5.1187404094795011e-02  2.5482830683760404e-02  0.0000000000000000e+00  0.0000000000000000e+00  3.6395517442666968e-02  7.2751601727555307e-02  1.0893342692820715e-01  1.4461208973876122e-01  1.7917324491930367e-01  2.1167160943656943e-01  2.4089752433321260e-01  2.6559251120996036e-01  2.8472036403462853e-01  2.9790080104456557e-01  3.0596986860978015e-01  3.1068370085388364e-01  3.1379003502622266e-01  3.1662346110095418e-01  3.2007106680341563e-01  3.2464354793557093e-01  3.3051075434902916e-01  3.3744426881252515e-01  3.4465730183908239e-01  3.5059795408895417e-01  3.5287836512763049e-01  3.4860207863283466e-01  3.3484662590523084e-01  3.1003122512968645e-01  2.7610254012824115e-01  2.3714561124236372e-01  1.9634822251423009e-01  1.5552403010214524e-01  1.1546291854559047e-01  7.6332560640501979e-02  3.7959592305009948e-02  0.0000000000000000e+00  0.0000000000000000e+00  4.8628423386660270e-02  9.7352423439802396e-02  1.4613940606114445e-01  1.9467733000106313e-01  2.4219663471901234e-01  2.8732188988525997e-01  3.2811602973469361e-01  3.6248146115900681e-01  3.8842404094439503e-01  4.0474245010009730e-01  4.1296064880702682e-01  4.1664093796321316e-01  4.1872263874877508e-01  4.2110075534196811e-01  4.2490475927193749e-01  4.3079094363085618e-01  4.3907673699126470e-01  4.4967405168389041e-01  4.6178542351698948e-01  4.7337458414299727e-01  4.8073714657822642e-01  4.7918913057137064e-01  4.6292143776311034e-01  4.2715418039700731e-01  3.7628064664067840e-01  3.1965525421543534e-01  2.6239036685822165e-01  2.0657505749782007e-01  1.5274988896919475e-01  1.0073403338225209e-01  5.0027973039702266e-02  0.0000000000000000e+00  0.0000000000000000e+00  6.0763720229483356e-02  1.2188948619031705e-01  1.8360113554927995e-01  2.4578265671158739e-01  3.0765623747076609e-01  3.6736733510454550e-01  4.2184276107623653e-01  4.6787276821053297e-01  5.0180643232197053e-01  5.1968528030368766e-01  5.2441835200619880e-01  5.2405307693650094e-01  5.2315554429199351e-01  5.2391107527198566e-01  5.2740431653441577e-01  5.3430600808012918e-01  5.4514969338903996e-01  5.6029164906516138e-01  5.7944972546713736e-01  6.0052219433460752e-01  6.1778129679920513e-01  6.2487563897973819e-01  6.1092115476271835e-01  5.5977626837310879e-01  4.8252043091996788e-01  4.0302278442405726e-01  3.2712289976839648e-01  2.5571741646008594e-01  1.8827004748576454e-01  1.2384505434419465e-01  6.1425208848229128e-02  0.0000000000000000e+00  0.0000000000000000e+00  7.2538206850426334e-02  1.4584837081905910e-01  2.2061755277344908e-01  2.9725058176763397e-01  3.7537550266850289e-01  4.5279345769068208e-01  5.2420063001090722e-01  5.8556530585924260e-01  6.3142493365197228e-01  6.4787399369925658e-01  6.4095769813452452e-01  6.3186641746748140e-01  6.2571356617580809e-01  6.2370455736244124e-01  6.2619729816911740e-01  6.3360358595965094e-01  6.4671643012257030e-01  6.6680068752850630e-01  6.9527060645190675e-01  7.3175286344778023e-01  7.6546304325302572e-01  7.8168463210903827e-01  7.7569235452389640e-01  7.0858618785446637e-01  5.9148122552128723e-01  4.8311096518374230e-01  3.8755589929947892e-01  3.0101077115080632e-01  2.2082264783036432e-01  1.4497487112423046e-01  7.1836112246317835e-02  0.0000000000000000e+00  0.0000000000000000e+00  8.3545767681328320e-02  1.6836638697483444e-01  2.5581781343278764e-01  3.4732684095274174e-01  4.4397972501141925e-01  5.4450055059736679e-01  6.3695209873659231e-01  7.0859633701578495e-01  7.6971071297518001e-01  7.8913595428022199e-01  7.5975602332393044e-01  7.3664703491210748e-01  7.2390068284275855e-01  7.1868709348323356e-01  7.1973729721647195e-01  7.2687893044614316e-01  7.4107878187073783e-01  7.6484162596400040e-01  8.0322285847455366e-01  8.5561978722084697e-01  9.1022553226885450e-01  9.2996558664404438e-01  9.0752523883195590e-01  8.2379485497653338e-01  6.8181568850810936e-01  5.5080646943321709e-01  4.3922411444903048e-01  3.4007800793540699e-01  2.4909721379824248e-01  1.6342101038566556e-01  8.0952520229920263e-02  0.0000000000000000e+00  0.0000000000000000e+00  9.3286145413018468e-02  1.8828052597713138e-01  2.8703060938296088e-01  3.9241002224653510e-01  5.0899396044678902e-01  6.3414370710932966e-01  7.4993988308232795e-01  8.2165095404331812e-01  8.6576462760247230e-01  8.9514386740558227e-01  8.6192968029576467e-01  8.3102005526856737e-01  8.1432841964546920e-01  8.0707005901763051e-01  8.0680650514049590e-01  8.1273767469213709e-01  8.2561096861102246e-01  8.4817355566261909e-01  8.8678111150990047e-01  9.4613428537948052e-01  9.9567834339178229e-01  1.0159637231139627e+00  9.8571460811897826e-01  8.9273130646230381e-01  7.4086076583017579e-01  5.9956634176831891e-01  4.7872779872502186e-01  3.7111706996451466e-01  2.7212721826421865e-01  1.7868050494979262e-01  8.8558410019209582e-02  0.0000000000000000e+00  0.0000000000000000e+00  1.0132528812121427e-01  2.0446770973064918e-01  3.1169509649338778e-01  4.2647412824963687e-01  5.5523673766781179e-01  7.0202345840948244e-01  8.2322267538403093e-01  8.8912657030318520e-01  9.3504747381775166e-01  9.6924394406679759e-01  9.4096380897111664e-01  9.1116161790772832e-01  8.9508984178359408e-01  8.8809442242031555e-01  8.8726098387504826e-01  8.9124775773045428e-01  9.0013423982641372e-01  9.1531562356331653e-01  9.3916653335874911e-01  9.7300569846935925e-01  1.0056427452425754e+00  1.0269249566372913e+00  1.0011728004996101e+00  9.1606529067819276e-01  7.6902667097677291e-01  6.2835921421460850e-01  5.0526159846303109e-01  3.9365516105971710e-01  2.8965822354580334e-01  1.9062470879411136e-01  9.4600075064810302e-02  0.0000000000000000e+00  0.0000000000000000e+00  1.0754868163762840e-01  2.1658881973723121e-01  3.2887655335180838e-01  4.4672876279700457e-01  5.7325213208013470e-01  7.1156484293083655e-01  8.4693839292684880e-01  9.3517004470583998e-01  9.8513497838947539e-01  1.0218947762716852e+00  1.0006904259985132e+00  9.7755159894809840e-01  9.6652093857946231e-01  9.6256282699719453e-01  9.6243670384021263e-01  9.6440244685142640e-01  9.6797720155215305e-01  9.7354757635272771e-01  9.8155482714438835e-01  9.9082049555097329e-01  9.9592299624251268e-01  9.9077731876264241e-01  9.6085443183749641e-01  8.9666962727284749e-01  7.7040247318851884e-01  6.3999039575870031e-01  5.2050373445754861e-01  4.0866099488638219e-01  3.0223970960289143e-01  1.9954991786902068e-01  9.9207264512471985e-02  0.0000000000000000e+00  0.0000000000000000e+00  1.1227154354760636e-01  2.2545940167835807e-01  3.4052497368172185e-01  4.5842402122005949e-01  5.7973787562276968e-01  7.0338876180268817e-01  8.2336509921225931e-01  9.2512241331105927e-01  1.0068597416243430e+00  1.0485047380992361e+00  1.0414602118936718e+00  1.0317686338802816e+00  1.0305939087449263e+00  1.0327796861375418e+00  1.0350352799929730e+00  1.0354554169562615e+00  1.0333797732840329e+00  1.0290030947095454e+00  1.0225102168646496e+00  1.0128441615170496e+00  9.9674777104293344e-01  9.6937347949197228e-01  9.2378260186087524e-01  8.5548885411545095e-01  7.5527811177729176e-01  6.4096022585695700e-01  5.2820704089459614e-01  4.1825960477342011e-01  3.1106203797001647e-01  2.0609241904123687e-01  1.0265710307936042e-01  0.0000000000000000e+00  0.0000000000000000e+00  1.1605577563617400e-01  2.3242046849167294e-01  3.4932049357418643e-01  4.6673051808306504e-01  5.8400069744157157e-01  6.9913368617430538e-01  8.0783598302068960e-01  9.0387801922054556e-01  9.8461680562708531e-01  1.0396265268491736e+00  1.0638666066513327e+00  1.0773370724378162e+00  1.0909914460382037e+00  1.1025006072813199e+00  1.1089854563640968e+00  1.1085054578538911e+00  1.1006090142378453e+00  1.0861648517774340e+00  1.0663341226570169e+00  1.0411344497519499e+00  1.0088470313843936e+00  9.6633660128725085e-01  9.0967540269398695e-01  8.3594980807683572e-01  7.4390632123054190e-01  6.4045432807556424e-01  5.3309810968915228e-01  4.2504998438189640e-01  3.1758195069790357e-01  2.1103686231260205e-01  1.0529346718686340e-01  0.0000000000000000e+00  0.0000000000000000e+00  1.1949577184498988e-01  2.3878547443754808e-01  3.5753565076932536e-01  4.7511924655774573e-01  5.9038179886570730e-01  7.0135202046980649e-01  8.0507990700321375e-01  8.9810243608002915e-01  9.7771257191069194e-01  1.0404951958369506e+00  1.0864372966756648e+00  1.1225193684761010e+00  1.1532134340604909e+00  1.1768541166763709e+00  1.1894689658660704e+00  1.1885214861576761e+00  1.1739352459701884e+00  1.1482852692615479e+00  1.1151501024121888e+00  1.0762139305453242e+00  1.0309664619409398e+00  9.7734307815417365e-01  9.1259809903424249e-01  8.3472577203455289e-01  7.4392022044592199e-01  6.4378157863053542e-01  5.3857001342287147e-01  4.3113308522021537e-01  3.2305989714735672e-01  2.1508897848212555e-01  1.0743185549619684e-01  0.0000000000000000e+00  0.0000000000000000e+00  1.2309675362601803e-01  2.4560687761445582e-01  3.6680727119435608e-01  4.8570679002058270e-01  6.0093690378919284e-01  7.1071119549588990e-01  8.1294905812333740e-01  9.0567287434562715e-01  9.8756534357146419e-01  1.0580995559952744e+00  1.1186978151731624e+00  1.1728543682527208e+00  1.2222166132776211e+00  1.2619469826085195e+00  1.2832166614931537e+00  1.2818567083595886e+00  1.2579753405220113e+00  1.2175158103615837e+00  1.1693882390580694e+00  1.1172497249611000e+00  1.0611534410164631e+00  9.9921895652396575e-01  9.2844456041461099e-01  8.4625874866212958e-01  7.5309378314763387e-01  6.5199813398315065e-01  5.4607766267766955e-01  4.3767154084157567e-01  3.2828093923166762e-01  2.1871481968956091e-01  1.0928633915896953e-01  0.0000000000000000e+00  0.0000000000000000e+00  1.2723527282787714e-01  2.5364429219502910e-01  3.7824926027676364e-01  4.9980645608392460e-01  6.1677390532681142e-01  7.2742412232200471e-01  8.3014450165986664e-01  9.2388095598414488e-01  1.0085735828810136e+00  1.0854260785890952e+00  1.1571825801485638e+00  1.2277892026864405e+00  1.3007146013659330e+00  1.3654274832959081e+00  1.3995503461031245e+00  1.3976441746991510e+00  1.3584481018799313e+00  1.2941765716412130e+00  1.2273314126585408e+00  1.1619081746215918e+00  1.0968503240092049e+00  1.0296358815064928e+00  9.5543584554210270e-01  8.6852364386989656e-01  7.6995616808748979e-01  6.6479877128988762e-01  5.5583759433595914e-01  4.4498160273780890e-01  3.3350059401500270e-01  2.2207634672518015e-01  1.1093289176742917e-01  0.0000000000000000e+00  0.0000000000000000e+00  1.3215464499477156e-01  2.6339725905527894e-01  3.9261339003972934e-01  5.1834010719460999e-01  6.3874853778337881e-01  7.5186775289138330e-01  8.5610761699937488e-01  9.5090212167778532e-01  1.0371837848111851e+00  1.1176202490380551e+00  1.1966334399667002e+00  1.2803253247968487e+00  1.3769481560536299e+00  1.4786316551145442e+00  1.5311391434790476e+00  1.5299176641271244e+00  1.4736133897223600e+00  1.3734002106560947e+00  1.2836896977776413e+00  1.2059535815722771e+00  1.1344312311189799e+00  1.0667825456921860e+00  9.9490853033313453e-01  9.0221770003558532e-01  7.9317174596277462e-01  6.8115876393304409e-01  5.6725174656656896e-01  4.5269586303679488e-01  3.3847946825604808e-01  2.2502503815742639e-01  1.1229998234065577e-01  0.0000000000000000e+00  0.0000000000000000e+00  1.3795344250767205e-01  2.7511222192661061e-01  4.1037600144427455e-01  5.4208011627634112e-01  6.6788271580385206e-01  7.8504331127424731e-01  8.9134915147914062e-01  9.8625069770013085e-01  1.0714459497728539e+00  1.1510651364539264e+00  1.2313086041683676e+00  1.3199997386039379e+00  1.4273332713534987e+00  1.5465543194388627e+00  1.6116088933328410e+00  1.6124032963510633e+00  1.5487345995164188e+00  1.4318323883949977e+00  1.3281022463006582e+00  1.2436744754212461e+00  1.1679778850401288e+00  1.0974432659575160e+00  1.0339544029421992e+00  9.4158094493108413e-01  8.1919070127658433e-01  6.9921390895358859e-01  5.7910140058556603e-01  4.5986487732342562e-01  3.4251985383290384e-01  2.2711548815101301e-01  1.1317395432901264e-01  0.0000000000000000e+00  0.0000000000000000e+00  1.4453700508353731e-01  2.8870253415923608e-01  4.3167560906311236e-01  5.7170168680990996e-01  7.0564236733495900e-01  8.2905386405082904e-01  9.3796054556561737e-01  1.0312480482438449e+00  1.1112089777061172e+00  1.1838236336869838e+00  1.2575529452996854e+00  1.3412375727550112e+00  1.4452320735954820e+00  1.5638878314202704e+00  1.6306903682619553e+00  1.6337010230118809e+00  1.5723272153244172e+00  1.4564939251928795e+00  1.3534369309106733e+00  1.2727160818397409e+00  1.1963410953526668e+00  1.1104690224372540e+00  1.0279255253971509e+00  9.3699894578189635e-01  8.3218353041663584e-01  7.1729333489983071e-01  5.8991852937922096e-01  4.6497093847384002e-01  3.4446243832129869e-01  2.2762426531172406e-01  1.1321635957873481e-01  0.0000000000000000e+00  0.0000000000000000e+00  1.5151468820447472e-01  3.0353193698648551e-01  4.5600396997126041e-01  6.0753517023117509e-01  7.5410227171028121e-01  8.8776794320927643e-01  1.0003872592399554e+00  1.0897356551699731e+00  1.1584371314529101e+00  1.2155645412049372e+00  1.2739855361539953e+00  1.3424713788417280e+00  1.4279527570803638e+00  1.5284020802788010e+00  1.5880171530248925e+00  1.5938573124078557e+00  1.5457636681411266e+00  1.4479365655013332e+00  1.3568196664078571e+00  1.2870668283897364e+00  1.2237727130651761e+00  1.1202470222855452e+00  1.0197867450323226e+00  9.2525120251923088e-01  8.3417388105059720e-01  7.3729162243231705e-01  5.9823185071647711e-01  4.6551341251631878e-01  3.4260383853613302e-01  2.2559774401256522e-01  1.1200910200064931e-01  0.0000000000000000e+00  0.0000000000000000e+00  1.5805323747761804e-01  3.1803884903268059e-01  4.8149517658374874e-01  6.4866605170985348e-01  8.1591312425666196e-01  9.6806215141044516e-01  1.0866384941814848e+00  1.1693732032784858e+00  1.2176423355717065e+00  1.2463197841030096e+00  1.2806351570673622e+00  1.3270788552862609e+00  1.3857336270740015e+00  1.4501143952945588e+00  1.4945805198974054e+00  1.5034536060585295e+00  1.4748506318347940e+00  1.4122728431474225e+00  1.3393251636294412e+00  1.2741926025663148e+00  1.2177645102468921e+00  1.1165949424838268e+00  1.0058474422668553e+00  9.1015669620946538e-01  8.2096276028395510e-01  7.2559672648391627e-01  5.8964604878931703e-01  4.5617077682360996e-01  3.3473639475440042e-01  2.2006203566822471e-01  1.0916999916334839e-01  0.0000000000000000e+00  0.0000000000000000e+00  1.6276785034580507e-01  3.2930521451976269e-01  5.0366217275658354e-01  6.9031719727547491e-01  8.8307753866489780e-01  1.0617950901176780e+00  1.1886566914167815e+00  1.2633249588973361e+00  1.2866654221012954e+00  1.2720124257298733e+00  1.2755942879561952e+00  1.2998976324063694e+00  1.3383194260376665e+00  1.3818992716499687e+00  1.4164992291813046e+00  1.4303516978268491e+00  1.4176705136641317e+00  1.3771317059822796e+00  1.3145584246122095e+00  1.2424966816185132e+00  1.1723629789364849e+00  1.0911259350243936e+00  9.7703591315151117e-01  8.7814043419836263e-01  7.9294595869533102e-01  6.8065044763438742e-01  5.5749769480417810e-01  4.3473671877645664e-01  3.2001788030225631e-01  2.1066037541242624e-01  1.0456042192635738e-01  0.0000000000000000e+00  0.0000000000000000e+00  1.6386359504710857e-01  3.3307721500886828e-01  5.1409301998905399e-01  7.1617491491946805e-01  9.3381811332164810e-01  1.1137901389514135e+00  1.2388164293930237e+00  1.3044531673106554e+00  1.3103768779695741e+00  1.2697776053954728e+00  1.2504375485552914e+00  1.2590876592668918e+00  1.2862535021578259e+00  1.3232774267425327e+00  1.3599084330698310e+00  1.3846140381166498e+00  1.3891891060334238e+00  1.3647869586628103e+00  1.2999044931384036e+00  1.2093740692666410e+00  1.1173588777078249e+00  1.0248673018149446e+00  9.2267009191003102e-01  8.2199398473422203e-01  7.2874725555656272e-01  6.2552061215213928e-01  5.1440321344181317e-01  4.0519785138920450e-01  2.9984453237838227e-01  1.9791816179706653e-01  9.8363861811643263e-02  0.0000000000000000e+00  0.0000000000000000e+00  1.5979048492828152e-01  3.2544285501605547e-01  5.0414955014139584e-01  7.0643843601877876e-01  9.2868024905920488e-01  1.1063981888760108e+00  1.2235987629100631e+00  1.2804103043812416e+00  1.2765102147940923e+00  1.2262612206426302e+00  1.1980371009940138e+00  1.2003236457215916e+00  1.2248617694548980e+00  1.2656640072210994e+00  1.3160007843749062e+00  1.3599037532173912e+00  1.3800999340648286e+00  1.3727527745741572e+00  1.3011450421958100e+00  1.1783381023557613e+00  1.0632602778650584e+00  9.5804289052978109e-01  8.5638296390923785e-01  7.5849595747700471e-01  6.6400232155748729e-01  5.6771519545962779e-01  4.6934182557383219e-01  3.7170974722454381e-01  2.7613694669962952e-01  1.8271600949320124e-01  9.0928118318280834e-02  0.0000000000000000e+00  0.0000000000000000e+00  1.5004851510084577e-01  3.0517781167905134e-01  4.7136299305267626e-01  6.5679578863360943e-01  8.6407799289740861e-01  1.0347818849285271e+00  1.1441626397199822e+00  1.1923410270471044e+00  1.1850184407248683e+00  1.1407990250683671e+00  1.1159439726420870e+00  1.1199211835455085e+00  1.1477887006052854e+00  1.1992112292213395e+00  1.2688621276827514e+00  1.3388887138256027e+00  1.3681270767592220e+00  1.3511573613671410e+00  1.2701383381464766e+00  1.1297757802782904e+00  9.9977774750987125e-01  8.8792860747889957e-01  7.8643939902812454e-01  6.9161783587232373e-01  6.0100609496181456e-01  5.1191282708467778e-01  4.2342416203906957e-01  3.3603211792794413e-01  2.5015503135403228e-01  1.6578680120421538e-01  8.2581842920544782e-02  0.0000000000000000e+00  0.0000000000000000e+00  1.3541055198805854e-01  2.7426127993830846e-01  4.2002381129729788e-01  5.7583262132618906e-01  7