<?xml version="1.0"?>
<VTKFile type="UnstructuredGrid"  version="0.1"  >
<UnstructuredGrid>
<Piece  NumberOfPoints="1089" NumberOfCells="2048">
<Points>
<DataArray  type="Float64"  NumberOfComponents="3"  format="ascii">0 0 0  0.03125 0 0  0.0625 0 0  0.09375 0 0  0.125 0 0  0.15625 0 0  0.1875 0 0  0.21875 0 0  0.25 0 0  0.28125 0 0  0.3125 0 0  0.34375 0 0  0.375 0 0  0.40625 0 0  0.4375 0 0  0.46875 0 0  0.5 0 0  0.53125 0 0  0.5625 0 0  0.59375 0 0  0.625 0 0  0.65625 0 0  0.6875 0 0  0.71875 0 0  0.75 0 0  0.78125 0 0  0.8125 0 0  0.84375 0 0  0.875 0 0  0.90625 0 0  0.9375 0 0  0.96875 0 0  1 0 0  0 0.03125 0  0.03125 0.03125 0  0.0625 0.03125 0  0.09375 0.03125 0  0.125 0.03125 0  0.15625 0.03125 0  0.1875 0.03125 0  0.21875 0.03125 0  0.25 0.03125 0  0.28125 0.03125 0  0.3125 0.03125 0  0.34375 0.03125 0  0.375 0.03125 0  0.40625 0.03125 0  0.4375 0.03125 0  0.46875 0.03125 0  0.5 0.03125 0  0.53125 0.03125 0  0.5625 0.03125 0  0.59375 0.03125 0  0.625 0.03125 0  0.65625 0.03125 0  0.6875 0.03125 0  0.71875 0.03125 0  0.75 0.03125 0  0.78125 0.03125 0  0.8125 0.03125 0  0.84375 0.03125 0  0.875 0.03125 0  0.90625 0.03125 0  0.9375 0.03125 0  0.96875 0.03125 0  1 0.03125 0  0 0.0625 0  0.03125 0.0625 0  0.0625 0.0625 0  0.09375 0.0625 0  0.125 0.0625 0  0.15625 0.0625 0  0.1875 0.0625 0  0.21875 0.0625 0  0.25 0.0625 0  0.28125 0.0625 0  0.3125 0.0625 0  0.34375 0.0625 0  0.375 0.0625 0  0.40625 0.0625 0  0.4375 0.0625 0  0.46875 0.0625 0  0.5 0.0625 0  0.53125 0.0625 0  0.5625 0.0625 0  0.59375 0.0625 0  0.625 0.0625 0  0.65625 0.0625 0  0.6875 0.0625 0  0.71875 0.0625 0  0.75 0.0625 0  0.78125 0.0625 0  0.8125 0.0625 0  0.84375 0.0625 0  0.875 0.0625 0  0.90625 0.0625 0  0.9375 0.0625 0  0.96875 0.0625 0  1 0.0625 0  0 0.09375 0  0.03125 0.09375 0  0.0625 0.09375 0  0.09375 0.09375 0  0.125 0.09375 0  0.15625 0.09375 0  0.1875 0.09375 0  0.21875 0.09375 0  0.25 0.09375 0  0.28125 0.09375 0  0.3125 0.09375 0  0.34375 0.09375 0  0.375 0.09375 0  0.40625 0.09375 0  0.4375 0.09375 0  0.46875 0.09375 0  0.5 0.09375 0  0.53125 0.09375 0  0.5625 0.09375 0  0.59375 0.09375 0  0.625 0.09375 0  0.65625 0.09375 0  0.6875 0.09375 0  0.71875 0.09375 0  0.75 0.09375 0  0.78125 0.09375 0  0.8125 0.09375 0  0.84375 0.09375 0  0.875 0.09375 0  0.90625 0.09375 0  0.9375 0.09375 0  0.96875 0.09375 0  1 0.09375 0  0 0.125 0  0.03125 0.125 0  0.0625 0.125 0  0.09375 0.125 0  0.125 0.125 0  0.15625 0.125 0  0.1875 0.125 0  0.21875 0.125 0  0.25 0.125 0  0.28125 0.125 0  0.3125 0.125 0  0.34375 0.125 0  0.375 0.125 0  0.40625 0.125 0  0.4375 0.125 0  0.46875 0.125 0  0.5 0.125 0  0.53125 0.125 0  0.5625 0.125 0  0.59375 0.125 0  0.625 0.125 0  0.65625 0.125 0  0.6875 0.125 0  0.71875 0.125 0  0.75 0.125 0  0.78125 0.125 0  0.8125 0.125 0  0.84375 0.125 0  0.875 0.125 0  0.90625 0.125 0  0.9375 0.125 0  0.96875 0.125 0  1 0.125 0  0 0.15625 0  0.03125 0.15625 0  0.0625 0.15625 0  0.09375 0.15625 0  0.125 0.15625 0  0.15625 0.15625 0  0.1875 0.15625 0  0.21875 0.15625 0  0.25 0.15625 0  0.28125 0.15625 0  0.3125 0.15625 0  0.34375 0.15625 0  0.375 0.15625 0  0.40625 0.15625 0  0.4375 0.15625 0  0.46875 0.15625 0  0.5 0.15625 0  0.53125 0.15625 0  0.5625 0.15625 0  0.59375 0.15625 0  0.625 0.15625 0  0.65625 0.15625 0  0.6875 0.15625 0  0.71875 0.15625 0  0.75 0.15625 0  0.78125 0.15625 0  0.8125 0.15625 0  0.84375 0.15625 0  0.875 0.15625 0  0.90625 0.15625 0  0.9375 0.15625 0  0.96875 0.15625 0  1 0.15625 0  0 0.1875 0  0.03125 0.1875 0  0.0625 0.1875 0  0.09375 0.1875 0  0.125 0.1875 0  0.15625 0.1875 0  0.1875 0.1875 0  0.21875 0.1875 0  0.25 0.1875 0  0.28125 0.1875 0  0.3125 0.1875 0  0.34375 0.1875 0  0.375 0.1875 0  0.40625 0.1875 0  0.4375 0.1875 0  0.46875 0.1875 0  0.5 0.1875 0  0.53125 0.1875 0  0.5625 0.1875 0  0.59375 0.1875 0  0.625 0.1875 0  0.65625 0.1875 0  0.6875 0.1875 0  0.71875 0.1875 0  0.75 0.1875 0  0.78125 0.1875 0  0.8125 0.1875 0  0.84375 0.1875 0  0.875 0.1875 0  0.90625 0.1875 0  0.9375 0.1875 0  0.96875 0.1875 0  1 0.1875 0  0 0.21875 0  0.03125 0.21875 0  0.0625 0.21875 0  0.09375 0.21875 0  0.125 0.21875 0  0.15625 0.21875 0  0.1875 0.21875 0  0.21875 0.21875 0  0.25 0.21875 0  0.28125 0.21875 0  0.3125 0.21875 0  0.34375 0.21875 0  0.375 0.21875 0  0.40625 0.21875 0  0.4375 0.21875 0  0.46875 0.21875 0  0.5 0.21875 0  0.53125 0.21875 0  0.5625 0.21875 0  0.59375 0.21875 0  0.625 0.21875 0  0.65625 0.21875 0  0.6875 0.21875 0  0.71875 0.21875 0  0.75 0.21875 0  0.78125 0.21875 0  0.8125 0.21875 0  0.84375 0.21875 0  0.875 0.21875 0  0.90625 0.21875 0  0.9375 0.21875 0  0.96875 0.21875 0  1 0.21875 0  0 0.25 0  0.03125 0.25 0  0.0625 0.25 0  0.09375 0.25 0  0.125 0.25 0  0.15625 0.25 0  0.1875 0.25 0  0.21875 0.25 0  0.25 0.25 0  0.28125 0.25 0  0.3125 0.25 0  0.34375 0.25 0  0.375 0.25 0  0.40625 0.25 0  0.4375 0.25 0  0.46875 0.25 0  0.5 0.25 0  0.53125 0.25 0  0.5625 0.25 0  0.59375 0.25 0  0.625 0.25 0  0.65625 0.25 0  0.6875 0.25 0  0.71875 0.25 0  0.75 0.25 0  0.78125 0.25 0  0.8125 0.25 0  0.84375 0.25 0  0.875 0.25 0  0.90625 0.25 0  0.9375 0.25 0  0.96875 0.25 0  1 0.25 0  0 0.28125 0  0.03125 0.28125 0  0.0625 0.28125 0  0.09375 0.28125 0  0.125 0.28125 0  0.15625 0.28125 0  0.1875 0.28125 0  0.21875 0.28125 0  0.25 0.28125 0  0.28125 0.28125 0  0.3125 0.28125 0  0.34375 0.28125 0  0.375 0.28125 0  0.40625 0.28125 0  0.4375 0.28125 0  0.46875 0.28125 0  0.5 0.28125 0  0.53125 0.28125 0  0.5625 0.28125 0  0.59375 0.28125 0  0.625 0.28125 0  0.65625 0.28125 0  0.6875 0.28125 0  0.71875 0.28125 0  0.75 0.28125 0  0.78125 0.28125 0  0.8125 0.28125 0  0.84375 0.28125 0  0.875 0.28125 0  0.90625 0.28125 0  0.9375 0.28125 0  0.96875 0.28125 0  1 0.28125 0  0 0.3125 0  0.03125 0.3125 0  0.0625 0.3125 0  0.09375 0.3125 0  0.125 0.3125 0  0.15625 0.3125 0  0.1875 0.3125 0  0.21875 0.3125 0  0.25 0.3125 0  0.28125 0.3125 0  0.3125 0.3125 0  0.34375 0.3125 0  0.375 0.3125 0  0.40625 0.3125 0  0.4375 0.3125 0  0.46875 0.3125 0  0.5 0.3125 0  0.53125 0.3125 0  0.5625 0.3125 0  0.59375 0.3125 0  0.625 0.3125 0  0.65625 0.3125 0  0.6875 0.3125 0  0.71875 0.3125 0  0.75 0.3125 0  0.78125 0.3125 0  0.8125 0.3125 0  0.84375 0.3125 0  0.875 0.3125 0  0.90625 0.3125 0  0.9375 0.3125 0  0.96875 0.3125 0  1 0.3125 0  0 0.34375 0  0.03125 0.34375 0  0.0625 0.34375 0  0.09375 0.34375 0  0.125 0.34375 0  0.15625 0.34375 0  0.1875 0.34375 0  0.21875 0.34375 0  0.25 0.34375 0  0.28125 0.34375 0  0.3125 0.34375 0  0.34375 0.34375 0  0.375 0.34375 0  0.40625 0.34375 0  0.4375 0.34375 0  0.46875 0.34375 0  0.5 0.34375 0  0.53125 0.34375 0  0.5625 0.34375 0  0.59375 0.34375 0  0.625 0.34375 0  0.65625 0.34375 0  0.6875 0.34375 0  0.71875 0.34375 0  0.75 0.34375 0  0.78125 0.34375 0  0.8125 0.34375 0  0.84375 0.34375 0  0.875 0.34375 0  0.90625 0.34375 0  0.9375 0.34375 0  0.96875 0.34375 0  1 0.34375 0  0 0.375 0  0.03125 0.375 0  0.0625 0.375 0  0.09375 0.375 0  0.125 0.375 0  0.15625 0.375 0  0.1875 0.375 0  0.21875 0.375 0  0.25 0.375 0  0.28125 0.375 0  0.3125 0.375 0  0.34375 0.375 0  0.375 0.375 0  0.40625 0.375 0  0.4375 0.375 0  0.46875 0.375 0  0.5 0.375 0  0.53125 0.375 0  0.5625 0.375 0  0.59375 0.375 0  0.625 0.375 0  0.65625 0.375 0  0.6875 0.375 0  0.71875 0.375 0  0.75 0.375 0  0.78125 0.375 0  0.8125 0.375 0  0.84375 0.375 0  0.875 0.375 0  0.90625 0.375 0  0.9375 0.375 0  0.96875 0.375 0  1 0.375 0  0 0.40625 0  0.03125 0.40625 0  0.0625 0.40625 0  0.09375 0.40625 0  0.125 0.40625 0  0.15625 0.40625 0  0.1875 0.40625 0  0.21875 0.40625 0  0.25 0.40625 0  0.28125 0.40625 0  0.3125 0.40625 0  0.34375 0.40625 0  0.375 0.40625 0  0.40625 0.40625 0  0.4375 0.40625 0  0.46875 0.40625 0  0.5 0.40625 0  0.53125 0.40625 0  0.5625 0.40625 0  0.59375 0.40625 0  0.625 0.40625 0  0.65625 0.40625 0  0.6875 0.40625 0  0.71875 0.40625 0  0.75 0.40625 0  0.78125 0.40625 0  0.8125 0.40625 0  0.84375 0.40625 0  0.875 0.40625 0  0.90625 0.40625 0  0.9375 0.40625 0  0.96875 0.40625 0  1 0.40625 0  0 0.4375 0  0.03125 0.4375 0  0.0625 0.4375 0  0.09375 0.4375 0  0.125 0.4375 0  0.15625 0.4375 0  0.1875 0.4375 0  0.21875 0.4375 0  0.25 0.4375 0  0.28125 0.4375 0  0.3125 0.4375 0  0.34375 0.4375 0  0.375 0.4375 0  0.40625 0.4375 0  0.4375 0.4375 0  0.46875 0.4375 0  0.5 0.4375 0  0.53125 0.4375 0  0.5625 0.4375 0  0.59375 0.4375 0  0.625 0.4375 0  0.65625 0.4375 0  0.6875 0.4375 0  0.71875 0.4375 0  0.75 0.4375 0  0.78125 0.4375 0  0.8125 0.4375 0  0.84375 0.4375 0  0.875 0.4375 0  0.90625 0.4375 0  0.9375 0.4375 0  0.96875 0.4375 0  1 0.4375 0  0 0.46875 0  0.03125 0.46875 0  0.0625 0.46875 0  0.09375 0.46875 0  0.125 0.46875 0  0.15625 0.46875 0  0.1875 0.46875 0  0.21875 0.46875 0  0.25 0.46875 0  0.28125 0.46875 0  0.3125 0.46875 0  0.34375 0.46875 0  0.375 0.46875 0  0.40625 0.46875 0  0.4375 0.46875 0  0.46875 0.46875 0  0.5 0.46875 0  0.53125 0.46875 0  0.5625 0.46875 0  0.59375 0.46875 0  0.625 0.46875 0  0.65625 0.46875 0  0.6875 0.46875 0  0.71875 0.46875 0  0.75 0.46875 0  0.78125 0.46875 0  0.8125 0.46875 0  0.84375 0.46875 0  0.875 0.46875 0  0.90625 0.46875 0  0.9375 0.46875 0  0.96875 0.46875 0  1 0.46875 0  0 0.5 0  0.03125 0.5 0  0.0625 0.5 0  0.09375 0.5 0  0.125 0.5 0  0.15625 0.5 0  0.1875 0.5 0  0.21875 0.5 0  0.25 0.5 0  0.28125 0.5 0  0.3125 0.5 0  0.34375 0.5 0  0.375 0.5 0  0.40625 0.5 0  0.4375 0.5 0  0.46875 0.5 0  0.5 0.5 0  0.53125 0.5 0  0.5625 0.5 0  0.59375 0.5 0  0.625 0.5 0  0.65625 0.5 0  0.6875 0.5 0  0.71875 0.5 0  0.75 0.5 0  0.78125 0.5 0  0.8125 0.5 0  0.84375 0.5 0  0.875 0.5 0  0.90625 0.5 0  0.9375 0.5 0  0.96875 0.5 0  1 0.5 0  0 0.53125 0  0.03125 0.53125 0  0.0625 0.53125 0  0.09375 0.53125 0  0.125 0.53125 0  0.15625 0.53125 0  0.1875 0.53125 0  0.21875 0.53125 0  0.25 0.53125 0  0.28125 0.53125 0  0.3125 0.53125 0  0.34375 0.53125 0  0.375 0.53125 0  0.40625 0.53125 0  0.4375 0.53125 0  0.46875 0.53125 0  0.5 0.53125 0  0.53125 0.53125 0  0.5625 0.53125 0  0.59375 0.53125 0  0.625 0.53125 0  0.65625 0.53125 0  0.6875 0.53125 0  0.71875 0.53125 0  0.75 0.53125 0  0.78125 0.531
[...]
<PointData  Scalars="u"> 
<DataArray  type="Float64"  Name="u"  format="ascii">0.0000000000000000e+00  0.0000000000000000e+00  0.0000000000000000e+00  0.0000000000000000e+00  0.0000000000000000e+00  0.0000000000000000e+00  0.0000000000000000e+00  0.0000000000000000e+00  0.0000000000000000e+00  0.0000000000000000e+00  0.0000000000000000e+00  0.0000000000000000e+00  0.0000000000000000e+00  0.0000000000000000e+00  0.0000000000000000e+00  0.0000000000000000e+00  0.0000000000000000e+00  0.0000000000000000e+00  0.0000000000000000e+00  0.0000000000000000e+00  0.0000000000000000e+00  0.0000000000000000e+00  0.0000000000000000e+00  0.0000000000000000e+00  0.0000000000000000e+00  0.0000000000000000e+00  0.0000000000000000e+00  0.0000000000000000e+00  0.0000000000000000e+00  0.0000000000000000e+00  0.0000000000000000e+00  0.0000000000000000e+00  0.0000000000000000e+00  0.0000000000000000e+00  1.5339806870729084e-02  3.0594191283161837e-02  4.5648850944497783e-02  6.0326724770380369e-02  7.4369762932548933e-02  8.7441288397532096e-02  9.9159699100801649e-02  1.0916613362847259e-01  1.1721546508848274e-01  1.2327385994192203e-01  1.2757518641395252e-01  1.3056075708944254e-01  1.3273435786196686e-01  1.3454267865562924e-01  1.3631396716220232e-01  1.3823454288016071e-01  1.4033452108141098e-01  1.4246588832501039e-01  1.4427385421640518e-01  1.4518265129498026e-01  1.4443389537125578e-01  1.4121210165036116e-01  1.3485797450650219e-01  1.2515338958114944e-01  1.1251441642538629e-01  9.7796874791280408e-02  8.1887434557275943e-02  6.5462446466095919e-02  4.8935812346488673e-02  3.2502312292399936e-02  1.6205562353548579e-02  0.0000000000000000e+00  0.0000000000000000e+00  3.0723811770251162e-02  6.1311349088131052e-02  9.1562101429450427e-02  1.2114074709186393e-01  1.4952993962572814e-01  1.7602425610058817e-01  1.9979474508992251e-01  2.2003445064100607e-01  2.3615656724429340e-01  2.4803665895836796e-01  2.5620076495176564e-01  2.6167345025062894e-01  2.6557864230517852e-01  2.6886833463355375e-01  2.7222056628081803e-01  2.7602121028012483e-01  2.8035236762022592e-01  2.8494775107156711e-01  2.8911441675451727e-01  2.9166633044028040e-01  2.9096619204800744e-01  2.8517498718072304e-01  2.7269315476833456e-01  2.5289233133953820e-01  2.2679616234639244e-01  1.9652006496839802e-01  1.6407366545763111e-01  1.3085840838614041e-01  9.7657041603448833e-02  6.4790758262151277e-02  3.2285280167402126e-02  0.0000000000000000e+00  0.0000000000000000e+00  4.6166537806318138e-02  9.2215638067070824e-02  1.3792507193914053e-01  1.8284942550406266e-01  2.2622028679106398e-01  2.6690237842356695e-01  3.0347814282732827e-01  3.3449855755554225e-01  3.5879570691915896e-01  3.7596618953669714e-01  3.8697597023020219e-01  3.9382519704420599e-01  3.9852213041956536e-01  4.0262020838203683e-01  4.0716133465651994e-01  4.1274021333328376e-01  4.1953511150314626e-01  4.2724152635334245e-01  4.3489937408810148e-01  4.4067834731125255e-01  4.4182338583868247e-01  4.3504280732604439e-01  4.1707523861770923e-01  3.8620437170228972e-01  3.4461467529212780e-01  2.9686627911220226e-01  2.4658301174841971e-01  1.9589471742706005e-01  1.4579245712707142e-01  9.6557161340617717e-02  4.8068695158798899e-02  0.0000000000000000e+00  0.0000000000000000e+00  6.1611337398699048e-02  1.2323368239273502e-01  1.8473463771883125e-01  2.4565955383547805e-01  3.0503605413943607e-01  3.6122012416425592e-01  4.1196233452102798e-01  4.5486695707194313e-01  4.8770778364375988e-01  5.0919833176483775e-01  5.2107193282931974e-01  5.2731737318190897e-01  5.3127766975479085e-01  5.3515485735300894e-01  5.4028395501362714e-01  5.4743403222295661e-01  5.5694470866783519e-01  5.6864801391163078e-01  5.8153766298259546e-01  5.9320575479176185e-01  5.9940936170690795e-01  5.9485918845586006e-01  5.7313894439549107e-01  5.2909696906143744e-01  4.6758797561302329e-01  3.9890221159842665e-01  3.2881532060125496e-01  2.5981939816998123e-01  1.9268110243737688e-01  1.2733226203248812e-01  6.3315387560054961e-02  0.0000000000000000e+00  0.0000000000000000e+00  7.6890443578687392e-02  1.5406716656843550e-01  2.3165816873410955e-01  3.0939552608352777e-01  3.8626085472510852e-01  4.6004380549328838e-01  5.2721629097833200e-01  5.8413385485841707e-01  6.2675524684853523e-01  6.5083553309919873e-01  6.5962526445432168e-01  6.6197809347957437e-01  6.6304661480940563e-01  6.6539403485302884e-01  6.7033914421949337e-01  6.7868394687166067e-01  6.9100517656534399e-01  7.0760294684056346e-01  7.2799462218541489e-01  7.4964462092772399e-01  7.6606077670313277e-01  7.7007307788736701e-01  7.4976481183172372e-01  6.8783136746042384e-01  5.9633099161818870e-01  5.0117614350183781e-01  4.0903154704002642e-01  3.2118094248434714e-01  2.3727379060997303e-01  1.5645018389881629e-01  7.7704199437175769e-02  0.0000000000000000e+00  0.0000000000000000e+00  9.1688465988256640e-02  1.8409765949470769e-01  2.7784293921932918e-01  3.7319624097676446e-01  4.6953857114318215e-01  5.6423149223941882e-01  6.5128628379451181e-01  7.2611168479133925e-01  7.8268738920674041e-01  8.0613002538684608e-01  8.0306973285011363e-01  7.9647709563790370e-01  7.9217198267073474e-01  7.9171815688078651e-01  7.9568221812730588e-01  8.0460221018131106e-01  8.1933907148962726e-01  8.4116435567626202e-01  8.7139188671846535e-01  9.0928211599654007e-01  9.4285941998440426e-01  9.5592765084782549e-01  9.4305892169198402e-01  8.6265257297783871e-01  7.2686879779158364e-01  5.9894381651789330e-01  4.8378638943258545e-01  3.7771995486546195e-01  2.7815673674618308e-01  1.8308990731932129e-01  9.0858139221845033e-02  0.0000000000000000e+00  0.0000000000000000e+00  1.0553174430665634e-01  2.1232107655898713e-01  3.2169446404941809e-01  4.3500534316789935e-01  5.5316314117229970e-01  6.7445021712048503e-01  7.8570692301400669e-01  8.7298145788874226e-01  9.4701637363304592e-01  9.7451416731000973e-01  9.4807537410162035e-01  9.2689194194207059e-01  9.1577982847182149e-01  9.1203421647486671e-01  9.1449683597855647e-01  9.2308631257641394e-01  9.3885356781956042e-01  9.6439970228809979e-01  1.0049234145150998e+00  1.0594166300032384e+00  1.1147497648212781e+00  1.1308069241926249e+00  1.0993452385108922e+00  9.9986040140094978e-01  8.3594742296590896e-01  6.8212452228956511e-01  5.4805916976891078e-01  4.2672098201726849e-01  3.1381144370069453e-01  2.0642798498581352e-01  1.0241319993891375e-01  0.0000000000000000e+00  0.0000000000000000e+00  1.1784784873651484e-01  2.3741349312104090e-01  3.6075746661058311e-01  4.9077116481511945e-01  6.3206768537999747e-01  7.8142295438166742e-01  9.1920307510726218e-01  1.0079326437692009e+00  1.0649800617101268e+00  1.1039994484826146e+00  1.0741357130177152e+00  1.0450855078843841e+00  1.0300596038005680e+00  1.0242884704658644e+00  1.0253648136394966e+00  1.0325323384299012e+00  1.0466065743685204e+00  1.0704524595599723e+00  1.1106682437663724e+00  1.1719140472607177e+00  1.2210797524710899e+00  1.2368272182408933e+00  1.1960044382573352e+00  1.0854717622228616e+00  9.0969031050435556e-01  7.4346962340448552e-01  5.9803660888206955e-01  4.6613566704610354e-01  3.4312467269286412e-01  2.2587838503768320e-01  1.1211564035658904e-01  0.0000000000000000e+00  0.0000000000000000e+00  1.2814791917391335e-01  2.5811892850885543e-01  3.9219674454816400e-01  5.3389509734521678e-01  6.8979892244151386e-01  8.6378773612529991e-01  1.0087890984333634e+00  1.0926252015816140e+00  1.1527220274092083e+00  1.1978484572500327e+00  1.1740475739514951e+00  1.1467913883318610e+00  1.1328528357675802e+00  1.1275962052616704e+00  1.1280919758933141e+00  1.1329929723448466e+00  1.1423966799135299e+00  1.1577305301023348e+00  1.1813678392161762e+00  1.2144156095531216e+00  1.2444895494085291e+00  1.2602425578809637e+00  1.2231999951317010e+00  1.1200772855275849e+00  9.4843615176486873e-01  7.8180443696755142e-01  6.3280718391149471e-01  4.9542456918828998e-01  3.6580248343787025e-01  2.4129047262798997e-01  1.1990186609445146e-01  0.0000000000000000e+00  0.0000000000000000e+00  1.3630734924382013e-01  2.7406823237601696e-01  4.1499770492891419e-01  5.6136357013025884e-01  7.1619709513450691e-01  8.8241823056561630e-01  1.0437833898272957e+00  1.1526520671870513e+00  1.2182153656783841e+00  1.2671339221133140e+00  1.2518293565767873e+00  1.2324727928719137e+00  1.2244990234508182e+00  1.2228271959847097e+00  1.2241490643507029e+00  1.2266732870495629e+00  1.2298938165799040e+00  1.2341763355570161e+00  1.2398677688734148e+00  1.2454826355070683e+00  1.2449020460223970e+00  1.2312490200850372e+00  1.1886981430746724e+00  1.1070083533998607e+00  9.5674390150926580e-01  8.0026233291866666e-01  6.5425861371597693e-01  5.1568689984883331e-01  3.8247382208022140e-01  2.5300585695194405e-01  1.2592215068877505e-01  0.0000000000000000e+00  0.0000000000000000e+00  1.4268558974764148e-01  2.8618043158089790e-01  4.3132198706616376e-01  5.7890203075161939e-01  7.2924967592324896e-01  8.8084024342018130e-01  1.0268075942421673e+00  1.1511943753393823e+00  1.2517782075745763e+00  1.3070467948916651e+00  1.3079361918361720e+00  1.3038879062712443e+00  1.3071773737255410e+00  1.3125265281153813e+00  1.3165256862146029e+00  1.3171827043134716e+00  1.3138050904878702e+00  1.3065853829641596e+00  1.2956560374097610e+00  1.2797490778004272e+00  1.2551714639963303e+00  1.2164974355266747e+00  1.1561137694099586e+00  1.0691701080826539e+00  9.4601559059876650e-01  8.0608404622310181e-01  6.6660865007343850e-01  5.2933509499764198e-01  3.9450330947102141e-01  2.6175999250091947e-01  1.3049856296302326e-01  0.0000000000000000e+00  0.0000000000000000e+00  1.4792305548079879e-01  2.9597274966083092e-01  4.4417105174042726e-01  5.9223993501276073e-01  7.3918975494295436e-01  8.8254214809198350e-01  1.0173338721331182e+00  1.1365561766003067e+00  1.2371218593854019e+00  1.3077817048920697e+00  1.3432078824902545e+00  1.3649552488240451e+00  1.3849447822823253e+00  1.4008167490813372e+00  1.4095330605652143e+00  1.4090314877949930e+00  1.3988521348982916e+00  1.3799584950572195e+00  1.3536085934721258e+00  1.3197850259083292e+00  1.2765518050246580e+00  1.2204253309359454e+00  1.1471026601439853e+00  1.0534677889050703e+00  9.3834284064469520e-01  8.0943423657153113e-01  6.7516067667712110e-01  5.3932176317356173e-01  4.0356364645354159e-01  2.6846151950238373e-01  1.3403153876236967e-01  0.0000000000000000e+00  0.0000000000000000e+00  1.5270033150452789e-01  3.0494313129676620e-01  4.5612321126180011e-01  6.0529984067337439e-01  7.5094163517943102e-01  8.9062165977816599e-01  1.0208641930212232e+00  1.1376800591460283e+00  1.2379657708326741e+00  1.3179683153102637e+00  1.3776844134657307e+00  1.4246669723979948e+00  1.4637800773553544e+00  1.4932456529210478e+00  1.5087633426509039e+00  1.5075872769377963e+00  1.4896714194050609e+00  1.4578727988467575e+00  1.4161380521835198e+00  1.3663450432371498e+00  1.3079576876728949e+00  1.2387304996699167e+00  1.1556941909467611e+00  1.0567397661588991e+00  9.4222690398262876e-01  8.1627230057665912e-01  6.8375899662081807e-01  5.4804945991378151e-01  4.1110868358231883e-01  2.7393033902846897e-01  1.3688942998551987e-01  0.0000000000000000e+00  0.0000000000000000e+00  1.5759697118200020e-01  3.1429759048489830e-01  4.6905341726247030e-01  6.2051546073369268e-01  7.6691858206956831e-01  9.0604924596349556e-01  1.0353994532905855e+00  1.1526202809294925e+00  1.2561435624574591e+00  1.3453307388109181e+00  1.4216979356711752e+00  1.4890001407099032e+00  1.5489612315162056e+00  1.5962721127703006e+00  1.6213196085505839e+00  1.6195450039356976e+00  1.5911110913377289e+00  1.5425623929304493e+00  1.4836699054197016e+00  1.4185427746751635e+00  1.3473462495635355e+00  1.2681045711396690e+00  1.1776201504682351e+00  1.0731993913336759e+00  9.5545313739971538e-01  8.2788024368889579e-01  6.9408820594668197e-01  5.5686103385897967e-01  4.1804868666520245e-01  2.7870957039829131e-01  1.3932273378489268e-01  0.0000000000000000e+00  0.0000000000000000e+00  1.6304087986286631e-01  3.2489995241143593e-01  4.8423138052339121e-01  6.3939523998848780e-01  7.8842936429134924e-01  9.2918716029257198e-01  1.0596844921556070e+00  1.1786004160669403e+00  1.2857586833121326e+00  1.3824099420592568e+00  1.4714941331650082e+00  1.5572136586389211e+00  1.6431448787845098e+00  1.7177563274235566e+00  1.7568184988672453e+00  1.7543199996967984e+00  1.7089660583047168e+00  1.6340966472077731e+00  1.5541404832617094e+00  1.4736984928405492e+00  1.3918363868789578e+00  1.3059454437431548e+00  1.2108988366694931e+00  1.1006370291896816e+00  9.7643748515365358e-01  8.4394454586991419e-01  7.0640457131051781e-01  5.6612060965217881e-01  4.2467830248153721e-01  2.8298706638119714e-01  1.4142007404519052e-01  0.0000000000000000e+00  0.0000000000000000e+00  1.6929753466418163e-01  3.3729616019161790e-01  5.0248022520111146e-01  6.6295052055358372e-01  8.1641576843669494e-01  9.6045654513204259e-01  1.0931182444644758e+00  1.2136291567419151e+00  1.3229189668163122e+00  1.4238529524057857e+00  1.5211995853798810e+00  1.6214663500823965e+00  1.7332869781115310e+00  1.8478466971969691e+00  1.9067766379320097e+00  1.9048940693878000e+00  1.8407897149724275e+00  1.7267846883982303e+00  1.6214895860262326e+00  1.5269382897458295e+00  1.4372433000879039e+00  1.3500283979741032e+00  1.2566938791865938e+00  1.1395802495323011e+00  1.0035927477961402e+00  8.6325929954555836e-01  7.1999542154068163e-01  5.7538766572641697e-01  4.3071126180021835e-01  2.8658613086787504e-01  1.4309669928839600e-01  0.0000000000000000e+00  0.0000000000000000e+00  1.7645320722820443e-01  3.5171368892422455e-01  5.2425948205371398e-01  6.9194577705612026e-01  8.5189622100142237e-01  1.0008345375942849e+00  1.1361237172543142e+00  1.2570218656901075e+00  1.3653193063601801e+00  1.4655057291003257e+00  1.5643083307163408e+00  1.6701071760067043e+00  1.7936048525369115e+00  1.9271169698782067e+00  1.9995582512745860e+00  1.9997380932535536e+00  1.9274382759843971e+00  1.7950727797068198e+00  1.6741378142429679e+00  1.5717193729777494e+00  1.4768367450067972e+00  1.3858387361191129e+00  1.3008192762201611e+00  1.1835131602042439e+00  1.0328419444614829e+00  8.8362120189609961e-01  7.3340391080748280e-01  5.8353689828806654e-01  4.3532617577945809e-01  2.8898374637404894e-01  1.4410187174551672e-01  0.0000000000000000e+00  0.0000000000000000e+00  1.8435934746586599e-01  3.6796870145727950e-01  5.4958823472211549e-01  7.2694314503925006e-01  8.9625249119212391e-01  1.0523586107441381e+00  1.1906964935892204e+00  1.3099155385752979e+00  1.4124825437267923e+00  1.5049403151060601e+00  1.5965135132993673e+00  1.6967287204646919e+00  1.8164904778311379e+00  1.9493001163305186e+00  2.0235497203497448e+00  2.0260228096268982e+00  1.9560307630337623e+00  1.8245582789065886e+00  1.7039882626752225e+00  1.6050906101294986e+00  1.5089809353788959e+00  1.4010787033219407e+00  1.2952446402921376e+00  1.1791179186177938e+00  1.0469467488074682e+00  9.0296906017728018e-01  7.4485229118592455e-01  5.8879219242951875e-01  4.3717660369980954e-01  2.8933947023366158e-01  1.4404167074840604e-01  0.0000000000000000e+00  0.0000000000000000e+00  1.9252016509382566e-01  3.8522841267281738e-01  5.7770357992491173e-01  7.6802006335248096e-01  9.5138194094106687e-01  1.1188082261839674e+00  1.2612058639247172e+00  1.3760146273604417e+00  1.4660968366877236e+00  1.5413955164074153e+00  1.6159527243985330e+00  1.6993040356345706e+00  1.7987566174490879e+00  1.9117312459599825e+00  1.9780887150640969e+00  1.9835274182748635e+00  1.9277502111598857e+00  1.8155287873415928e+00  1.7076448422100345e+00  1.6202822607978045e+00  1.5378556279275488e+00  1.4107813504592586e+00  1.2855052412874950e+00  1.1653275176083588e+00  1.0477619607263271e+00  9.2303242887800985e-01  7.5253488895581944e-01  5.8830913570702004e-01  4.3432257796363960e-01  2.8655975516100290e-01  1.4243380875238210e-01  0.0000000000000000e+00  0.0000000000000000e+00  1.9993704302354182e-01  4.0160909180987625e-01  6.0629375270297514e-01  8.1378621116177430e-01  1.0196189720995548e+00  1.2069691869048456e+00  1.3556180339328101e+00  1.4629163405009555e+00  1.5304364540098130e+00  1.5744306155188901e+00  1.6222782790919654e+00  1.6811873413028191e+00  1.7512246511072125e+00  1.8251351838498053e+00  1.8750238471699079e+00  1.8836792201249692e+00  1.8488799309981079e+00  1.7744952537243845e+00  1.6861336907147169e+00  1.6036986342451975e+00  1.5285037466253779e+00  1.4038077252407328e+00  1.2674363660885226e+00  1.1460072572927951e+00  1.0305773569385246e+00  9.0771715337071424e-01  7.4087672058257292e-01  5.7624873155957845e-01  4.2430012461691308e-01  2.7953963467666915e-01  1.3883949063841844e-01  0.0000000000000000e+00  0.0000000000000000e+00  2.0500172253733137e-01  4.1373118046002089e-01  6.3016307556314866e-01  8.5859108651759730e-01  1.0917404188394084e+00  1.3073533925472371e+00  1.4644859901292040e+00  1.5625039743182003e+00  1.6024706372141306e+00  1.5991176187556364e+00  1.6130457920602166e+00  1.6473184573352857e+00  1.6949409188330171e+00  1.7460841310377122e+00  1.7851885286776534e+00  1.7992120344064066e+00  1.7816707398496723e+00  1.7311177485918565e+00  1.6540286933633452e+00  1.5642513358267920e+00  1.4744275933441313e+00  1.3710109088468760e+00  1.2311703615763789e+00  1.1065135106140391e+00  9.9567269540931791e-01  8.5523670485419667e-01  7.0265865128160432e-01  5.5017095591931708e-01  4.0615201472673923e-01  2.6786244630992107e-01  1.3309363865456308e-01  0.0000000000000000e+00  0.0000000000000000e+00  2.0567012298618614e-01  4.1678696225461315e-01  6.3990793449747896e-01  8.8442663413374933e-01  1.1437382576263313e+00  1.3602059220414722e+00  1.5147124266984944e+00  1.6022286697686390e+00  1.6225804935221799e+00  1.5904297746571561e+00  1.5788265970198154e+00  1.5954725910116478e+00  1.6303834289436332e+00  1.6741095910710877e+00  1.7152720196859863e+00  1.7410462824630528e+00  1.7422560646134069e+00  1.7092691922770888e+00  1.6299351507375508e+00  1.5205243610987433e+00  1.4073978458471608e+00  1.2921240405518442e+00  1.1652552653218842e+00  1.0391196450881599e+00  9.2025870209488847e-01  7.9022537499718870e-01  6.5137769063901685e-01  5.1435182636972654e-01  3.8137797686486968e-01  2.5209226373960514e-01  1.2539286889794826e-01  0.0000000000000000e+00  0.0000000000000000e+00  2.0019492415428128e-01  4.0640402968199196e-01  6.2598842433377211e-01  8.6970230152914751e-01  1.1329342963229339e+00  1.3460137910788765e+00  1.4911596352689074e+00  1.5682256834363999e+00  1.5770668744053540e+00  1.5336334770768933e+00  1.5116573543367942e+00  1.5207771959754635e+00  1.5523689902493629e+00  1.5998844665825542e+00  1.6557153534938358e+00  1.7022476917651204e+00  1.7205169924751449e+00  1.7061034065123841e+00  1.6198675390562400e+00  1.4761942899175213e+00  1.3386414317936730e+00  1.2101085712248583e+00  1.0843180268496497e+00  9.6183118116824706e-01  8.4247104938974371e-01  7.2083986474921014e-01  5.9674085016943090e-01  4.7331874801308083e-01  3.5208706494974468e-01  2.3320316804975935e-01  1.1612390799860953e-01  0.0000000000000000e+00  0.0000000000000000e+00  1.8801337495832837e-01  3.8121357005508749e-01  5.8566769263648066e-01  8.0966323108937210e-01  1.0552910331052734e+00  1.2593811636323948e+00  1.3948327558535740e+00  1.4615038858973275e+00  1.4656899344348033e+00  1.4278546585569969e+00  1.4087785064093588e+00  1.4191491670505445e+00  1.4539223767976390e+00  1.5126295609329465e+00  1.5891760424840644e+00  1.6638848089686364e+00  1.6922197418598279e+00  1.6679872211582132e+00  1.5721257182879653e+00  1.4101193186258523e+00  1.2571051745936144e+00  1.1221016093989566e+00  9.9728227939569891e-01  8.7902712994150412e-01  7.6492313131562428e-01  6.5223031994524405e-01  5.4007132474265296e-01  4.2905759693101109e-01  3.1970079347879138e-01  2.1202579669303420e-01  1.0566078327166713e-01  0.0000000000000000e+00  0.0000000000000000e+00  1.6999263313286056e-01  3.4341842449604537e-01  5.2367438980964509e-01  7.1368466809519260e-01  9