<?xml version="1.0"?>
<VTKFile type="UnstructuredGrid"  version="0.1"  >
<UnstructuredGrid>
<Piece  NumberOfPoints="1089" NumberOfCells="2048">
<Points>
<DataArray  type="Float64"  NumberOfComponents="3"  format="ascii">0 0 0  0.03125 0 0  0.0625 0 0  0.09375 0 0  0.125 0 0  0.15625 0 0  0.1875 0 0  0.21875 0 0  0.25 0 0  0.28125 0 0  0.3125 0 0  0.34375 0 0  0.375 0 0  0.40625 0 0  0.4375 0 0  0.46875 0 0  0.5 0 0  0.53125 0 0  0.5625 0 0  0.59375 0 0  0.625 0 0  0.65625 0 0  0.6875 0 0  0.71875 0 0  0.75 0 0  0.78125 0 0  0.8125 0 0  0.84375 0 0  0.875 0 0  0.90625 0 0  0.9375 0 0  0.96875 0 0  1 0 0  0 0.03125 0  0.03125 0.03125 0  0.0625 0.03125 0  0.09375 0.03125 0  0.125 0.03125 0  0.15625 0.03125 0  0.1875 0.03125 0  0.21875 0.03125 0  0.25 0.03125 0  0.28125 0.03125 0  0.3125 0.03125 0  0.34375 0.03125 0  0.375 0.03125 0  0.40625 0.03125 0  0.4375 0.03125 0  0.46875 0.03125 0  0.5 0.03125 0  0.53125 0.03125 0  0.5625 0.03125 0  0.59375 0.03125 0  0.625 0.03125 0  0.65625 0.03125 0  0.6875 0.03125 0  0.71875 0.03125 0  0.75 0.03125 0  0.78125 0.03125 0  0.8125 0.03125 0  0.84375 0.03125 0  0.875 0.03125 0  0.90625 0.03125 0  0.9375 0.03125 0  0.96875 0.03125 0  1 0.03125 0  0 0.0625 0  0.03125 0.0625 0  0.0625 0.0625 0  0.09375 0.0625 0  0.125 0.0625 0  0.15625 0.0625 0  0.1875 0.0625 0  0.21875 0.0625 0  0.25 0.0625 0  0.28125 0.0625 0  0.3125 0.0625 0  0.34375 0.0625 0  0.375 0.0625 0  0.40625 0.0625 0  0.4375 0.0625 0  0.46875 0.0625 0  0.5 0.0625 0  0.53125 0.0625 0  0.5625 0.0625 0  0.59375 0.0625 0  0.625 0.0625 0  0.65625 0.0625 0  0.6875 0.0625 0  0.71875 0.0625 0  0.75 0.0625 0  0.78125 0.0625 0  0.8125 0.0625 0  0.84375 0.0625 0  0.875 0.0625 0  0.90625 0.0625 0  0.9375 0.0625 0  0.96875 0.0625 0  1 0.0625 0  0 0.09375 0  0.03125 0.09375 0  0.0625 0.09375 0  0.09375 0.09375 0  0.125 0.09375 0  0.15625 0.09375 0  0.1875 0.09375 0  0.21875 0.09375 0  0.25 0.09375 0  0.28125 0.09375 0  0.3125 0.09375 0  0.34375 0.09375 0  0.375 0.09375 0  0.40625 0.09375 0  0.4375 0.09375 0  0.46875 0.09375 0  0.5 0.09375 0  0.53125 0.09375 0  0.5625 0.09375 0  0.59375 0.09375 0  0.625 0.09375 0  0.65625 0.09375 0  0.6875 0.09375 0  0.71875 0.09375 0  0.75 0.09375 0  0.78125 0.09375 0  0.8125 0.09375 0  0.84375 0.09375 0  0.875 0.09375 0  0.90625 0.09375 0  0.9375 0.09375 0  0.96875 0.09375 0  1 0.09375 0  0 0.125 0  0.03125 0.125 0  0.0625 0.125 0  0.09375 0.125 0  0.125 0.125 0  0.15625 0.125 0  0.1875 0.125 0  0.21875 0.125 0  0.25 0.125 0  0.28125 0.125 0  0.3125 0.125 0  0.34375 0.125 0  0.375 0.125 0  0.40625 0.125 0  0.4375 0.125 0  0.46875 0.125 0  0.5 0.125 0  0.53125 0.125 0  0.5625 0.125 0  0.59375 0.125 0  0.625 0.125 0  0.65625 0.125 0  0.6875 0.125 0  0.71875 0.125 0  0.75 0.125 0  0.78125 0.125 0  0.8125 0.125 0  0.84375 0.125 0  0.875 0.125 0  0.90625 0.125 0  0.9375 0.125 0  0.96875 0.125 0  1 0.125 0  0 0.15625 0  0.03125 0.15625 0  0.0625 0.15625 0  0.09375 0.15625 0  0.125 0.15625 0  0.15625 0.15625 0  0.1875 0.15625 0  0.21875 0.15625 0  0.25 0.15625 0  0.28125 0.15625 0  0.3125 0.15625 0  0.34375 0.15625 0  0.375 0.15625 0  0.40625 0.15625 0  0.4375 0.15625 0  0.46875 0.15625 0  0.5 0.15625 0  0.53125 0.15625 0  0.5625 0.15625 0  0.59375 0.15625 0  0.625 0.15625 0  0.65625 0.15625 0  0.6875 0.15625 0  0.71875 0.15625 0  0.75 0.15625 0  0.78125 0.15625 0  0.8125 0.15625 0  0.84375 0.15625 0  0.875 0.15625 0  0.90625 0.15625 0  0.9375 0.15625 0  0.96875 0.15625 0  1 0.15625 0  0 0.1875 0  0.03125 0.1875 0  0.0625 0.1875 0  0.09375 0.1875 0  0.125 0.1875 0  0.15625 0.1875 0  0.1875 0.1875 0  0.21875 0.1875 0  0.25 0.1875 0  0.28125 0.1875 0  0.3125 0.1875 0  0.34375 0.1875 0  0.375 0.1875 0  0.40625 0.1875 0  0.4375 0.1875 0  0.46875 0.1875 0  0.5 0.1875 0  0.53125 0.1875 0  0.5625 0.1875 0  0.59375 0.1875 0  0.625 0.1875 0  0.65625 0.1875 0  0.6875 0.1875 0  0.71875 0.1875 0  0.75 0.1875 0  0.78125 0.1875 0  0.8125 0.1875 0  0.84375 0.1875 0  0.875 0.1875 0  0.90625 0.1875 0  0.9375 0.1875 0  0.96875 0.1875 0  1 0.1875 0  0 0.21875 0  0.03125 0.21875 0  0.0625 0.21875 0  0.09375 0.21875 0  0.125 0.21875 0  0.15625 0.21875 0  0.1875 0.21875 0  0.21875 0.21875 0  0.25 0.21875 0  0.28125 0.21875 0  0.3125 0.21875 0  0.34375 0.21875 0  0.375 0.21875 0  0.40625 0.21875 0  0.4375 0.21875 0  0.46875 0.21875 0  0.5 0.21875 0  0.53125 0.21875 0  0.5625 0.21875 0  0.59375 0.21875 0  0.625 0.21875 0  0.65625 0.21875 0  0.6875 0.21875 0  0.71875 0.21875 0  0.75 0.21875 0  0.78125 0.21875 0  0.8125 0.21875 0  0.84375 0.21875 0  0.875 0.21875 0  0.90625 0.21875 0  0.9375 0.21875 0  0.96875 0.21875 0  1 0.21875 0  0 0.25 0  0.03125 0.25 0  0.0625 0.25 0  0.09375 0.25 0  0.125 0.25 0  0.15625 0.25 0  0.1875 0.25 0  0.21875 0.25 0  0.25 0.25 0  0.28125 0.25 0  0.3125 0.25 0  0.34375 0.25 0  0.375 0.25 0  0.40625 0.25 0  0.4375 0.25 0  0.46875 0.25 0  0.5 0.25 0  0.53125 0.25 0  0.5625 0.25 0  0.59375 0.25 0  0.625 0.25 0  0.65625 0.25 0  0.6875 0.25 0  0.71875 0.25 0  0.75 0.25 0  0.78125 0.25 0  0.8125 0.25 0  0.84375 0.25 0  0.875 0.25 0  0.90625 0.25 0  0.9375 0.25 0  0.96875 0.25 0  1 0.25 0  0 0.28125 0  0.03125 0.28125 0  0.0625 0.28125 0  0.09375 0.28125 0  0.125 0.28125 0  0.15625 0.28125 0  0.1875 0.28125 0  0.21875 0.28125 0  0.25 0.28125 0  0.28125 0.28125 0  0.3125 0.28125 0  0.34375 0.28125 0  0.375 0.28125 0  0.40625 0.28125 0  0.4375 0.28125 0  0.46875 0.28125 0  0.5 0.28125 0  0.53125 0.28125 0  0.5625 0.28125 0  0.59375 0.28125 0  0.625 0.28125 0  0.65625 0.28125 0  0.6875 0.28125 0  0.71875 0.28125 0  0.75 0.28125 0  0.78125 0.28125 0  0.8125 0.28125 0  0.84375 0.28125 0  0.875 0.28125 0  0.90625 0.28125 0  0.9375 0.28125 0  0.96875 0.28125 0  1 0.28125 0  0 0.3125 0  0.03125 0.3125 0  0.0625 0.3125 0  0.09375 0.3125 0  0.125 0.3125 0  0.15625 0.3125 0  0.1875 0.3125 0  0.21875 0.3125 0  0.25 0.3125 0  0.28125 0.3125 0  0.3125 0.3125 0  0.34375 0.3125 0  0.375 0.3125 0  0.40625 0.3125 0  0.4375 0.3125 0  0.46875 0.3125 0  0.5 0.3125 0  0.53125 0.3125 0  0.5625 0.3125 0  0.59375 0.3125 0  0.625 0.3125 0  0.65625 0.3125 0  0.6875 0.3125 0  0.71875 0.3125 0  0.75 0.3125 0  0.78125 0.3125 0  0.8125 0.3125 0  0.84375 0.3125 0  0.875 0.3125 0  0.90625 0.3125 0  0.9375 0.3125 0  0.96875 0.3125 0  1 0.3125 0  0 0.34375 0  0.03125 0.34375 0  0.0625 0.34375 0  0.09375 0.34375 0  0.125 0.34375 0  0.15625 0.34375 0  0.1875 0.34375 0  0.21875 0.34375 0  0.25 0.34375 0  0.28125 0.34375 0  0.3125 0.34375 0  0.34375 0.34375 0  0.375 0.34375 0  0.40625 0.34375 0  0.4375 0.34375 0  0.46875 0.34375 0  0.5 0.34375 0  0.53125 0.34375 0  0.5625 0.34375 0  0.59375 0.34375 0  0.625 0.34375 0  0.65625 0.34375 0  0.6875 0.34375 0  0.71875 0.34375 0  0.75 0.34375 0  0.78125 0.34375 0  0.8125 0.34375 0  0.84375 0.34375 0  0.875 0.34375 0  0.90625 0.34375 0  0.9375 0.34375 0  0.96875 0.34375 0  1 0.34375 0  0 0.375 0  0.03125 0.375 0  0.0625 0.375 0  0.09375 0.375 0  0.125 0.375 0  0.15625 0.375 0  0.1875 0.375 0  0.21875 0.375 0  0.25 0.375 0  0.28125 0.375 0  0.3125 0.375 0  0.34375 0.375 0  0.375 0.375 0  0.40625 0.375 0  0.4375 0.375 0  0.46875 0.375 0  0.5 0.375 0  0.53125 0.375 0  0.5625 0.375 0  0.59375 0.375 0  0.625 0.375 0  0.65625 0.375 0  0.6875 0.375 0  0.71875 0.375 0  0.75 0.375 0  0.78125 0.375 0  0.8125 0.375 0  0.84375 0.375 0  0.875 0.375 0  0.90625 0.375 0  0.9375 0.375 0  0.96875 0.375 0  1 0.375 0  0 0.40625 0  0.03125 0.40625 0  0.0625 0.40625 0  0.09375 0.40625 0  0.125 0.40625 0  0.15625 0.40625 0  0.1875 0.40625 0  0.21875 0.40625 0  0.25 0.40625 0  0.28125 0.40625 0  0.3125 0.40625 0  0.34375 0.40625 0  0.375 0.40625 0  0.40625 0.40625 0  0.4375 0.40625 0  0.46875 0.40625 0  0.5 0.40625 0  0.53125 0.40625 0  0.5625 0.40625 0  0.59375 0.40625 0  0.625 0.40625 0  0.65625 0.40625 0  0.6875 0.40625 0  0.71875 0.40625 0  0.75 0.40625 0  0.78125 0.40625 0  0.8125 0.40625 0  0.84375 0.40625 0  0.875 0.40625 0  0.90625 0.40625 0  0.9375 0.40625 0  0.96875 0.40625 0  1 0.40625 0  0 0.4375 0  0.03125 0.4375 0  0.0625 0.4375 0  0.09375 0.4375 0  0.125 0.4375 0  0.15625 0.4375 0  0.1875 0.4375 0  0.21875 0.4375 0  0.25 0.4375 0  0.28125 0.4375 0  0.3125 0.4375 0  0.34375 0.4375 0  0.375 0.4375 0  0.40625 0.4375 0  0.4375 0.4375 0  0.46875 0.4375 0  0.5 0.4375 0  0.53125 0.4375 0  0.5625 0.4375 0  0.59375 0.4375 0  0.625 0.4375 0  0.65625 0.4375 0  0.6875 0.4375 0  0.71875 0.4375 0  0.75 0.4375 0  0.78125 0.4375 0  0.8125 0.4375 0  0.84375 0.4375 0  0.875 0.4375 0  0.90625 0.4375 0  0.9375 0.4375 0  0.96875 0.4375 0  1 0.4375 0  0 0.46875 0  0.03125 0.46875 0  0.0625 0.46875 0  0.09375 0.46875 0  0.125 0.46875 0  0.15625 0.46875 0  0.1875 0.46875 0  0.21875 0.46875 0  0.25 0.46875 0  0.28125 0.46875 0  0.3125 0.46875 0  0.34375 0.46875 0  0.375 0.46875 0  0.40625 0.46875 0  0.4375 0.46875 0  0.46875 0.46875 0  0.5 0.46875 0  0.53125 0.46875 0  0.5625 0.46875 0  0.59375 0.46875 0  0.625 0.46875 0  0.65625 0.46875 0  0.6875 0.46875 0  0.71875 0.46875 0  0.75 0.46875 0  0.78125 0.46875 0  0.8125 0.46875 0  0.84375 0.46875 0  0.875 0.46875 0  0.90625 0.46875 0  0.9375 0.46875 0  0.96875 0.46875 0  1 0.46875 0  0 0.5 0  0.03125 0.5 0  0.0625 0.5 0  0.09375 0.5 0  0.125 0.5 0  0.15625 0.5 0  0.1875 0.5 0  0.21875 0.5 0  0.25 0.5 0  0.28125 0.5 0  0.3125 0.5 0  0.34375 0.5 0  0.375 0.5 0  0.40625 0.5 0  0.4375 0.5 0  0.46875 0.5 0  0.5 0.5 0  0.53125 0.5 0  0.5625 0.5 0  0.59375 0.5 0  0.625 0.5 0  0.65625 0.5 0  0.6875 0.5 0  0.71875 0.5 0  0.75 0.5 0  0.78125 0.5 0  0.8125 0.5 0  0.84375 0.5 0  0.875 0.5 0  0.90625 0.5 0  0.9375 0.5 0  0.96875 0.5 0  1 0.5 0  0 0.53125 0  0.03125 0.53125 0  0.0625 0.53125 0  0.09375 0.53125 0  0.125 0.53125 0  0.15625 0.53125 0  0.1875 0.53125 0  0.21875 0.53125 0  0.25 0.53125 0  0.28125 0.53125 0  0.3125 0.53125 0  0.34375 0.53125 0  0.375 0.53125 0  0.40625 0.53125 0  0.4375 0.53125 0  0.46875 0.53125 0  0.5 0.53125 0  0.53125 0.53125 0  0.5625 0.53125 0  0.59375 0.53125 0  0.625 0.53125 0  0.65625 0.53125 0  0.6875 0.53125 0  0.71875 0.53125 0  0.75 0.53125 0  0.78125 0.531
[...]
<PointData  Scalars="u"> 
<DataArray  type="Float64"  Name="u"  format="ascii">0.0000000000000000e+00  0.0000000000000000e+00  0.0000000000000000e+00  0.0000000000000000e+00  0.0000000000000000e+00  0.0000000000000000e+00  0.0000000000000000e+00  0.0000000000000000e+00  0.0000000000000000e+00  0.0000000000000000e+00  0.0000000000000000e+00  0.0000000000000000e+00  0.0000000000000000e+00  0.0000000000000000e+00  0.0000000000000000e+00  0.0000000000000000e+00  0.0000000000000000e+00  0.0000000000000000e+00  0.0000000000000000e+00  0.0000000000000000e+00  0.0000000000000000e+00  0.0000000000000000e+00  0.0000000000000000e+00  0.0000000000000000e+00  0.0000000000000000e+00  0.0000000000000000e+00  0.0000000000000000e+00  0.0000000000000000e+00  0.0000000000000000e+00  0.0000000000000000e+00  0.0000000000000000e+00  0.0000000000000000e+00  0.0000000000000000e+00  0.0000000000000000e+00  7.1929474435649390e-03  1.4396487110938206e-02  2.1578235908368736e-02  2.8648517607082310e-02  3.5440254676397442e-02  4.1708116028236930e-02  4.7156834796469073e-02  5.1501742545611046e-02  5.4552323813309309e-02  5.6304210381156274e-02  5.6994664427425200e-02  5.7047652646423100e-02  5.6938450851612574e-02  5.7083934974735941e-02  5.7789002431719028e-02  5.9228384035742619e-02  6.1435694170642409e-02  6.4283168054619685e-02  6.7452554774884418e-02  7.0417096367034290e-02  7.2471351506943435e-02  7.2843316975969033e-02  7.0891544046708152e-02  6.6376049104847665e-02  5.9647298664499880e-02  5.1462390163865807e-02  4.2594682277172558e-02  3.3608421790989031e-02  2.4815380127766282e-02  1.6320603194498434e-02  8.0885095123883460e-03  0.0000000000000000e+00  0.0000000000000000e+00  1.4494074454244894e-02  2.9034439360870357e-02  4.3586738757933043e-02  5.7990505338062978e-02  7.1910808670138895e-02  8.4826670224590436e-02  9.6084854433029818e-02  1.0503050847588027e-01  1.1118935815769709e-01  1.1449717515040515e-01  1.1548483716099184e-01  1.1513807998084438e-01  1.1451976536675187e-01  1.1451944186858661e-01  1.1576666342885333e-01  1.1862267644465896e-01  1.2317500225977043e-01  1.2919631277686103e-01  1.3606611518458889e-01  1.4269787737923326e-01  1.4756446878839760e-01  1.4892043601465144e-01  1.4520872400726151e-01  1.3575986769494283e-01  1.2146151874789016e-01  1.0422310588346928e-01  8.5821427262142633e-02  6.7431812078256576e-02  4.9634166646598289e-02  3.2573538401337407e-02  1.6122019182449883e-02  0.0000000000000000e+00  0.0000000000000000e+00  2.1969650317260531e-02  4.4083550450447352e-02  6.6366220627341016e-02  8.8632457407240836e-02  1.1038784256438218e-01  1.3077780303863726e-01  1.4865577402934882e-01  1.6281000858788769e-01  1.7224981376217063e-01  1.7666560016008340e-01  1.7702520696990198e-01  1.7525935863305442e-01  1.7327473040751262e-01  1.7252501167516332e-01  1.7397607811192406e-01  1.7818298499392210e-01  1.8532862821517160e-01  1.9516296637461014e-01  2.0683237839652793e-01  2.1865865446476646e-01  2.2806180187800446e-01  2.3190617611086800e-01  2.2701149272089921e-01  2.1160709524398216e-01  1.8765995791626455e-01  1.5939793810162745e-01  1.3008072826131961e-01  1.0149598573017377e-01  7.4335314451549672e-02  4.8623728129007643e-02  2.4020220541694889e-02  0.0000000000000000e+00  0.0000000000000000e+00  2.9623746694013527e-02  5.9590997058372869e-02  9.0090153229589215e-02  1.2100766210719015e-01  1.5173576945234260e-01  1.8101144524219362e-01  2.0695990211971990e-01  2.2751802848225883e-01  2.4071204340266122e-01  2.4538898457168470e-01  2.4327412250675837e-01  2.3824079094596654e-01  2.3347872320935381e-01  2.3104838750617906e-01  2.3218018092863013e-01  2.3758729969419734e-01  2.4760974981375489e-01  2.6214390440941893e-01  2.8031892561003030e-01  2.9993209279947919e-01  3.1698937338348010e-01  3.2643540458134901e-01  3.2199404797873882e-01  2.9845886957981022e-01  2.6036780521666891e-01  2.1752081066253279e-01  1.7518321800781578e-01  1.3539001727143382e-01  9.8520261933849385e-02  6.4180118466024921e-02  3.1633143812070219e-02  0.0000000000000000e+00  0.0000000000000000e+00  3.7358768391011661e-02  7.5397683321574510e-02  1.1463106927918955e-01  1.5520595127710418e-01  1.9655620040696856e-01  2.3695701261064095e-01  2.7336919169584628e-01  3.0258678244488002e-01  3.2090795923473875e-01  3.2427331178996416e-01  3.1590736047675100e-01  3.0447881906796492e-01  2.9492316072083430e-01  2.8961943436663379e-01  2.8975633338143469e-01  2.9606516186395293e-01  3.0911552927477742e-01  3.2927338952278973e-01  3.5621028331700882e-01  3.8764485371696766e-01  4.1741616517331587e-01  4.3867773328814219e-01  4.3972697599413518e-01  4.0322630635461471e-01  3.4080194309711004e-01  2.7767592564174659e-01  2.1984441241705668e-01  1.6802794033968099e-01  1.2141391561590625e-01  7.8759339912567616e-02  3.8730869613902007e-02  0.0000000000000000e+00  0.0000000000000000e+00  4.4938318217896567e-02  9.1043353821813375e-02  1.3937301205489622e-01  1.9067844041998067e-01  2.4487413026675003e-01  2.9991553640297436e-01  3.5043198682017301e-01  3.9238276611659351e-01  4.2017173660634799e-01  4.1917229745634393e-01  3.9597330747954462e-01  3.7326158383177466e-01  3.5656732503580219e-01  3.4723467271135577e-01  3.4568410031389768e-01  3.5237358854182305e-01  3.6814805538830947e-01  3.9433676073665924e-01  4.3241089599360405e-01  4.8192082038192913e-01  5.3130672043776606e-01  5.6479526388626766e-01  5.7722616988625786e-01  5.2698858794090975e-01  4.2571305064901360e-01  3.3572638647505010e-01  2.6110830227980225e-01  1.9752851799979404e-01  1.4187799693600633e-01  9.1720249470837137e-02  4.5025260372226567e-02  0.0000000000000000e+00  0.0000000000000000e+00  5.1972801271523275e-02  1.0569490100370701e-01  1.6298398316741769e-01  2.2572627543772006e-01  2.9543530766317916e-01  3.7109480009953605e-01  4.4031040724260961e-01  4.8980487975479886e-01  5.3078505462564396e-01  5.3027032936725071e-01  4.8085057113524743e-01  4.4133071062840284e-01  4.1616330657617001e-01  4.0240235845125438e-01  3.9874127902837436e-01  4.0501821973679286e-01  4.2226179474438208e-01  4.5311686909130527e-01  5.0292509300935817e-01  5.7098113903678716e-01  6.4462290408800638e-01  6.8424048966245532e-01  6.8189457457105318e-01  6.1703396142904421e-01  4.9265585231269843e-01  3.8222171018489209e-01  2.9443546349531635e-01  2.2153496832552713e-01  1.5864915820408462e-01  1.0240351816835784e-01  5.0232722810522198e-02  0.0000000000000000e+00  0.0000000000000000e+00  5.7970612512896244e-02  1.1819596800417573e-01  1.8327462344861220e-01  2.5667740675074119e-01  3.4367714682125017e-01  4.4184731653254494e-01  5.3246114288533242e-01  5.7884576870431947e-01  5.9885464837965596e-01  6.0643590960724070e-01  5.5079352098461398e-01  5.0121393654219992e-01  4.7049506118282969e-01  4.5361754090437673e-01  4.4803517334276344e-01  4.5291988247567350e-01  4.6906493229653867e-01  4.9936762083049435e-01  5.5054502775065384e-01  6.2752869383233612e-01  6.9766523557412374e-01  7.4010444354544436e-01  7.3201126589824761e-01  6.6017193052771850e-01  5.2841441861460559e-01  4.1042984575942559e-01  3.1640463904229549e-01  2.3828933672382757e-01  1.7081997548003205e-01  1.1035527983736468e-01  5.4164256710435031e-02  0.0000000000000000e+00  0.0000000000000000e+00  6.2508080553256226e-02  1.2742757326069598e-01  1.9763295911598169e-01  2.7726694139400054e-01  3.7361898072855626e-01  4.9141580128765694e-01  5.8459300610903076e-01  6.2186399918217494e-01  6.4116731644423186e-01  6.5156888946241753e-01  5.9921213237101689e-01  5.4920043892253512e-01  5.1790285400818925e-01  5.0044930212301408e-01  4.9379310330529880e-01  4.9653156658004866e-01  5.0874453200616698e-01  5.3188267719226112e-01  5.6841087513601996e-01  6.1964176828130746e-01  6.7353344255328229e-01  7.1911812175539924e-01  7.1819140119890867e-01  6.5738753766397906e-01  5.3366866776232003e-01  4.1946399046075095e-01  3.2633713635196232e-01  2.4743311915645841e-01  1.7822933664912907e-01  1.1551231457702668e-01  5.6799733852216289e-02  0.0000000000000000e+00  0.0000000000000000e+00  6.5498619731672356e-02  1.3309909440509723e-01  2.0516872765481803e-01  2.8466203453963196e-01  3.7536046441571513e-01  4.8103950322493860e-01  5.8643680690735056e-01  6.4485077222064546e-01  6.6608043873240896e-01  6.7711802695343770e-01  6.3051237055607445e-01  5.8613836701814781e-01  5.5909119358705861e-01  5.4410525693019585e-01  5.3779319837997730e-01  5.3833029565270918e-01  5.4519496041907445e-01  5.5875633002900327e-01  5.7940778689891381e-01  6.0578478640912725e-01  6.3197010267158049e-01  6.5130497045506031e-01  6.4809441274435642e-01  6.1197171791534544e-01  5.1298312859550921e-01  4.1249623493636889e-01  3.2617728310054228e-01  2.5012581224892261e-01  1.8155959982973194e-01  1.1825558345829071e-01  5.8310237427664932e-02  0.0000000000000000e+00  0.0000000000000000e+00  6.7309902075843642e-02  1.3614268887775077e-01  2.0805328780813451e-01  2.8457918703459428e-01  3.6684228471869035e-01  4.5417501445555486e-01  5.4062531929541324e-01  6.1111253229804241e-01  6.6408490157498357e-01  6.7846978395443958e-01  6.4536380024271300e-01  6.1401978341980867e-01  5.9648184372027802e-01  5.8736743795410495e-01  5.8324290755140695e-01  5.8210979687648967e-01  5.8325452745653616e-01  5.8683382267178652e-01  5.9295508683039977e-01  6.0036595667641923e-01  6.0543399252295194e-01  6.0279488121550739e-01  5.8481586092341986e-01  5.4643269720644272e-01  4.7749728661089330e-01  3.9660909375584441e-01  3.2005832366056119e-01  2.4874209296852581e-01  1.8216352954266538e-01  1.1932009075714195e-01  5.9019791427126170e-02  0.0000000000000000e+00  0.0000000000000000e+00  6.8569206108064523e-02  1.3804382807164639e-01  2.0922591224116174e-01  2.8263658204157271e-01  3.5811280307219151e-01  4.3403091376177022e-01  5.0628911842715285e-01  5.6868308212971053e-01  6.1878172010851462e-01  6.4580862749984114e-01  6.4466776813869175e-01  6.3688408649088624e-01  6.3429417077214012e-01  6.3453977273539386e-01  6.3463313557297774e-01  6.3254041825827145e-01  6.2776695229142376e-01  6.2117852520550554e-01  6.1390895496361031e-01  6.0583326080382460e-01  5.9493767822915278e-01  5.7766026948681792e-01  5.4955398796673660e-01  5.0720939953541133e-01  4.4894244095536506e-01  3.8172551779990765e-01  3.1313346618931115e-01  2.4614740090105283e-01  1.8166693578608931e-01  1.1959168423472641e-01  5.9319907955254242e-02  0.0000000000000000e+00  0.0000000000000000e+00  6.9935857994856160e-02  1.4025352622509910e-01  2.1118415524213574e-01  2.8263215532242492e-01  3.5391925306255628e-01  4.2346921640841440e-01  4.8862823398603955e-01  5.4615377691345768e-01  5.9355997089368839e-01  6.2755319074040061e-01  6.4840835588028789e-01  6.6379550646075802e-01  6.7866134817335400e-01  6.9136713220782275e-01  6.9776823734269566e-01  6.9519839646947434e-01  6.8355889050754248e-01  6.6552356890668840e-01  6.4478726424936728e-01  6.2298328226984423e-01  5.9936661550942572e-01  5.7149667018617700e-01  5.3616690625233254e-01  4.9091769900798166e-01  4.3559215358427428e-01  3.7362463336669849e-01  3.0912235496189333e-01  2.4466543408773400e-01  1.8147771352150616e-01  1.1986608300297717e-01  5.9568784680544586e-02  0.0000000000000000e+00  0.0000000000000000e+00  7.1972189854701704e-02  1.4394083348389156e-01  2.1574268325796228e-01  2.8691391790495679e-01  3.5656617667882073e-01  4.2333589687563122e-01  4.8550869779058053e-01  5.4143562155132818e-01  5.9012119731603752e-01  6.3135832362316469e-01  6.6696140379203384e-01  7.0089833625220299e-01  7.3511932462768059e-01  7.6461785561383322e-01  7.8008414927671510e-01  7.7711595662625810e-01  7.5580763192154010e-01  7.2241112419471420e-01  6.8628658834299860e-01  6.5115276990674553e-01  6.1684830148594805e-01  5.8111259815585103e-01  5.4045116534619586e-01  4.9178781211547506e-01  4.3520703453160742e-01  3.7354498212596865e-01  3.0966991318359632e-01  2.4561129998540659e-01  1.8249002152071597e-01  1.2067855301038882e-01  6.0013931581160307e-02  0.0000000000000000e+00  0.0000000000000000e+00  7.5101805647975931e-02  1.4995956178722325e-01  2.2415431034762590e-01  2.9696801850041299e-01  3.6734114384957223e-01  4.3398470673223127e-01  4.9569257871100508e-01  5.5180730154159774e-01  6.0267909385024088e-01  6.4995003695809483e-01  6.9684868590046256e-01  7.4783162958748806e-01  8.0679836789013148e-01  8.6268659007787307e-01  8.9176092111576277e-01  8.8827007377660450e-01  8.5084669044888284e-01  7.9241379319191274e-01  7.3679738919847060e-01  6.8806165048100509e-01  6.4484896731066876e-01  6.0420240276599513e-01  5.6066932669085434e-01  5.0780217272536943e-01  4.4634168211667752e-01  3.8126472722214738e-01  3.1509238312852472e-01  2.4939012869291730e-01  1.8502717178966696e-01  1.2223569673055944e-01  6.0753314214774097e-02  0.0000000000000000e+00  0.0000000000000000e+00  7.9604791059567082e-02  1.5888329052633943e-01  2.3728127794326098e-01  3.1385716447581835e-01  3.8725499926277684e-01  4.5593440187412404e-01  5.1871930726779347e-01  5.7547629865466743e-01  6.2761515619263741e-01  6.7833885393986260e-01  7.3266475462515601e-01  7.9734870561437543e-01  8.8139103136163877e-01  9.7657177572582698e-01  1.0252201512790498e+00  1.0225334915910402e+00  9.6704348816751518e-01  8.7055581134162940e-01  7.9088083042141633e-01  7.2938081199187010e-01  6.7967560481181910e-01  6.3899244542929723e-01  5.9838662134362619e-01  5.3982865007191716e-01  4.6768119878469883e-01  3.9578333776527741e-01  3.2482747189791433e-01  2.5566967323107159e-01  1.8887811291284967e-01  1.2440842899364360e-01  6.1725240463125254e-02  0.0000000000000000e+00  0.0000000000000000e+00  8.5605282853616238e-02  1.7101241200384121e-01  2.5568692515298197e-01  3.3847722873927866e-01  4.1748573206177381e-01  4.9035639780919599e-01  5.5525251734662906e-01  6.1205871476354767e-01  6.6299861817732120e-01  7.1283029269749831e-01  7.6846254646187206e-01  8.3848308333683508e-01  9.3396150656731569e-01  1.0478685733643349e+00  1.1099476717972541e+00  1.1094962419868066e+00  1.0462716727210588e+00  9.3213412791152650e-01  8.3766404121492966e-01  7.6917822288501481e-01  7.1516437146800071e-01  6.7153356344242998e-01  6.3997038489021407e-01  5.8183690611520933e-01  4.9553457073643392e-01  4.1519052143755109e-01  3.3763840318917582e-01  2.6348670532411089e-01  1.9333513327578858e-01  1.2674566099241408e-01  6.2713705580684578e-02  0.0000000000000000e+00  0.0000000000000000e+00  9.3019416715636696e-02  1.8628812280105339e-01  2.7956801277607096e-01  3.7161130677509385e-01  4.5967219896908385e-01  5.3958056300078783e-01  6.0762090246562994e-01  6.6307302925882150e-01  7.0878831042627399e-01  7.5148815107107669e-01  8.0048184639866127e-01  8.6543448835947179e-01  9.5758148223929285e-01  1.0710695234438363e+00  1.1351509116847169e+00  1.1371584619461144e+00  1.0764353010049539e+00  9.6345149415070341e-01  8.6966969066681210e-01  8.0505696287593365e-01  7.5019377088773687e-01  6.9004206195972451e-01  6.3793842692805780e-01  5.8104460596058727e-01  5.1310426093405126e-01  4.3776196492630948e-01  3.5200595592271494e-01  2.7125896126205445e-01  1.9718837589365554e-01  1.2849309850353291e-01  6.3366221350534879e-02  0.0000000000000000e+00  0.0000000000000000e+00  1.0144522616366924e-01  2.0406055598981498e-01  3.0842395568932368e-01  4.1366384462516709e-01  5.1608741154435978e-01  6.0779948208766166e-01  6.8063871452451641e-01  7.3269549227331354e-01  7.6716434743387274e-01  7.9404894117992764e-01  8.2734071334467663e-01  8.7662040135820374e-01  9.4946754495659647e-01  1.0438797794988042e+00  1.1005173561865480e+00  1.1056442952605061e+00  1.0590680146534091e+00  9.6516397557727729e-01  8.8390078710116204e-01  8.3067379245435014e-01  7.8935032193958077e-01  7.0989579658588420e-01  6.3810982145503992e-01  5.7667631464678459e-01  5.2258116189390336e-01  4.6554637157230699e-01  3.6638649255515637e-01  2.7634005323309685e-01  1.9863547542933277e-01  1.2864252803032672e-01  6.3241078507026746e-02  0.0000000000000000e+00  0.0000000000000000e+00  1.1000545938993783e-01  2.2268673191376859e-01  3.4029716378896152e-01  4.6369943166195055e-01  5.8960142399328896e-01  7.0239057835142438e-01  7.8289263570299183e-01  8.2914034475355836e-01  8.4298468616024758e-01  8.4059261549799280e-01  8.4910849086633522e-01  8.7566876409265937e-01  9.2054640063618676e-01  9.7698035647804438e-01  1.0177580927411183e+00  1.0262241188705357e+00  1.0003524564687027e+00  9.4378201064481659e-01  8.8150315754107800e-01  8.3267820295219719e-01  7.9800334276157736e-01  7.2024853172229253e-01  6.3655096650586329e-01  5.7279748532212049e-01  5.1948906521964866e-01  4.6273120072411333e-01  3.6544126394903581e-01  2.7305745144709309e-01  1.9532102641199467e-01  1.2615354680825322e-01  6.1929516457799615e-02  0.0000000000000000e+00  0.0000000000000000e+00  1.1723002238620725e-01  2.3906843109481257e-01  3.7042329731153428e-01  5.1664994373479578e-01  6.7171954108799692e-01  8.1470808426624530e-01  9.0582476851950311e-01  9.4514557482564143e-01  9.3395986103319562e-01  8.8677361275892119e-01  8.6373683067580431e-01  8.6770262018204136e-01  8.9180795213973807e-01  9.2664419996054892e-01  9.5724614623596338e-01  9.7112280539625651e-01  9.6209456822253470e-01  9.2866966716025046e-01  8.7690507544283769e-01  8.1996213305455878e-01  7.6975432287777745e-01  7.1211349202688068e-01  6.2354745630234409e-01  5.5489786573476851e-01  5.0420568028323531e-01  4.2761667777785406e-01  3.4203673434365534e-01  2.5903197138756934e-01  1.8632536919118836e-01  1.2063070075214652e-01  5.9276030720450693e-02  0.0000000000000000e+00  0.0000000000000000e+00  1.2120448422051927e-01  2.4866997242303585e-01  3.8983595692682310e-01  5.5513036484422806e-01  7.3923527021495372e-01  8.8595833587168737e-01  9.7737211484669873e-01  1.0091568974948215e+00  9.8131394237916814e-01  9.0817335629344220e-01  8.6217277727882680e-01  8.5066823824903803e-01  8.6372285662752779e-01  8.9223960224808774e-01  9.2538759139670479e-01  9.5092574143615227e-01  9.6010333093143441e-01  9.4342480249088778e-01  8.8849985410742127e-01  8.1093381788976815e-01  7.3622387527593869e-01  6.6516427731233774e-01  5.8761377216770072e-01  5.1519966948941642e-01  4.5386534648565297e-01  3.8469811510742491e-01  3.0954407117078131e-01  2.3845366447257563e-01  1.7309266873511153e-01  1.1260462402581807e-01  5.5461492860323168e-02  0.0000000000000000e+00  0.0000000000000000e+00  1.2026544700071019e-01  2.4730013128807543e-01  3.8929847801192091e-01  5.5800220694373204e-01  7.5006090025561445e-01  8.9727471757085331e-01  9.8305483613982192e-01  1.0079268181266505e+00  9.7186803136279631e-01  8.9043513031694355e-01  8.3667519481955821e-01  8.1979522981958564e-01  8.3113769749652988e-01  8.6443874951510413e-01  9.1261292820523177e-01  9.5869375350187114e-01  9.8427632077081162e-01  9.8521370772242134e-01  9.2226373455618293e-01  8.0915430141204947e-01  7.0842831439742526e-01  6.2208410345713128e-01  5.4311217533894329e-01  4.7142796158279421e-01  4.0629715262110028e-01  3.4185144794911171e-01  2.7742471720190959e-01  2.1566474647474387e-01  1.5760491680323113e-01  1.0297057588871761e-01  5.0834938326840259e-02  0.0000000000000000e+00  0.0000000000000000e+00  1.1385621843793950e-01  2.3360701538686496e-01  3.6611043040809010e-01  5.2057976842422404e-01  7.0026380305738822e-01  8.4337026500333279e-01  9.2395322237982447e-01  9.4249972876799892e-01  9.0537761949913520e-01  8.3263920524247137e-01  7.8440764075272917e-01  7.7091913448738414e-01  7.8703470993604430e-01  8.3250010703307931e-01  9.0171770243923344e-01  9.7571384461842892e-01  1.0106358338508938e+00  1.0006594183646493e+00  9.2666476117591701e-01  7.9348882979119861e-01  6.7517016006816566e-01  5.7974293222624484e-01  4.9863257117187892e-01  4.2761410444197190e-01  3.6376455045421341e-01  3.0390125894003606e-01  2.4672572094080597e-01  1.9242948718854935e-01  1.4112075881649164e-01  9.2453284973752464e-02  4.5718389392328959e-02  0.0000000000000000e+00  0.0000000000000000e+00  1.0276372515338295e-01  2.0962640741305660e-01  3.2473384881581113e-01  4.5186587011882828e-01  5