<?xml version="1.0"?>
<VTKFile type="UnstructuredGrid"  version="0.1"  >
<UnstructuredGrid>
<Piece  NumberOfPoints="1089" NumberOfCells="2048">
<Points>
<DataArray  type="Float64"  NumberOfComponents="3"  format="ascii">0 0 0  0.03125 0 0  0.0625 0 0  0.09375 0 0  0.125 0 0  0.15625 0 0  0.1875 0 0  0.21875 0 0  0.25 0 0  0.28125 0 0  0.3125 0 0  0.34375 0 0  0.375 0 0  0.40625 0 0  0.4375 0 0  0.46875 0 0  0.5 0 0  0.53125 0 0  0.5625 0 0  0.59375 0 0  0.625 0 0  0.65625 0 0  0.6875 0 0  0.71875 0 0  0.75 0 0  0.78125 0 0  0.8125 0 0  0.84375 0 0  0.875 0 0  0.90625 0 0  0.9375 0 0  0.96875 0 0  1 0 0  0 0.03125 0  0.03125 0.03125 0  0.0625 0.03125 0  0.09375 0.03125 0  0.125 0.03125 0  0.15625 0.03125 0  0.1875 0.03125 0  0.21875 0.03125 0  0.25 0.03125 0  0.28125 0.03125 0  0.3125 0.03125 0  0.34375 0.03125 0  0.375 0.03125 0  0.40625 0.03125 0  0.4375 0.03125 0  0.46875 0.03125 0  0.5 0.03125 0  0.53125 0.03125 0  0.5625 0.03125 0  0.59375 0.03125 0  0.625 0.03125 0  0.65625 0.03125 0  0.6875 0.03125 0  0.71875 0.03125 0  0.75 0.03125 0  0.78125 0.03125 0  0.8125 0.03125 0  0.84375 0.03125 0  0.875 0.03125 0  0.90625 0.03125 0  0.9375 0.03125 0  0.96875 0.03125 0  1 0.03125 0  0 0.0625 0  0.03125 0.0625 0  0.0625 0.0625 0  0.09375 0.0625 0  0.125 0.0625 0  0.15625 0.0625 0  0.1875 0.0625 0  0.21875 0.0625 0  0.25 0.0625 0  0.28125 0.0625 0  0.3125 0.0625 0  0.34375 0.0625 0  0.375 0.0625 0  0.40625 0.0625 0  0.4375 0.0625 0  0.46875 0.0625 0  0.5 0.0625 0  0.53125 0.0625 0  0.5625 0.0625 0  0.59375 0.0625 0  0.625 0.0625 0  0.65625 0.0625 0  0.6875 0.0625 0  0.71875 0.0625 0  0.75 0.0625 0  0.78125 0.0625 0  0.8125 0.0625 0  0.84375 0.0625 0  0.875 0.0625 0  0.90625 0.0625 0  0.9375 0.0625 0  0.96875 0.0625 0  1 0.0625 0  0 0.09375 0  0.03125 0.09375 0  0.0625 0.09375 0  0.09375 0.09375 0  0.125 0.09375 0  0.15625 0.09375 0  0.1875 0.09375 0  0.21875 0.09375 0  0.25 0.09375 0  0.28125 0.09375 0  0.3125 0.09375 0  0.34375 0.09375 0  0.375 0.09375 0  0.40625 0.09375 0  0.4375 0.09375 0  0.46875 0.09375 0  0.5 0.09375 0  0.53125 0.09375 0  0.5625 0.09375 0  0.59375 0.09375 0  0.625 0.09375 0  0.65625 0.09375 0  0.6875 0.09375 0  0.71875 0.09375 0  0.75 0.09375 0  0.78125 0.09375 0  0.8125 0.09375 0  0.84375 0.09375 0  0.875 0.09375 0  0.90625 0.09375 0  0.9375 0.09375 0  0.96875 0.09375 0  1 0.09375 0  0 0.125 0  0.03125 0.125 0  0.0625 0.125 0  0.09375 0.125 0  0.125 0.125 0  0.15625 0.125 0  0.1875 0.125 0  0.21875 0.125 0  0.25 0.125 0  0.28125 0.125 0  0.3125 0.125 0  0.34375 0.125 0  0.375 0.125 0  0.40625 0.125 0  0.4375 0.125 0  0.46875 0.125 0  0.5 0.125 0  0.53125 0.125 0  0.5625 0.125 0  0.59375 0.125 0  0.625 0.125 0  0.65625 0.125 0  0.6875 0.125 0  0.71875 0.125 0  0.75 0.125 0  0.78125 0.125 0  0.8125 0.125 0  0.84375 0.125 0  0.875 0.125 0  0.90625 0.125 0  0.9375 0.125 0  0.96875 0.125 0  1 0.125 0  0 0.15625 0  0.03125 0.15625 0  0.0625 0.15625 0  0.09375 0.15625 0  0.125 0.15625 0  0.15625 0.15625 0  0.1875 0.15625 0  0.21875 0.15625 0  0.25 0.15625 0  0.28125 0.15625 0  0.3125 0.15625 0  0.34375 0.15625 0  0.375 0.15625 0  0.40625 0.15625 0  0.4375 0.15625 0  0.46875 0.15625 0  0.5 0.15625 0  0.53125 0.15625 0  0.5625 0.15625 0  0.59375 0.15625 0  0.625 0.15625 0  0.65625 0.15625 0  0.6875 0.15625 0  0.71875 0.15625 0  0.75 0.15625 0  0.78125 0.15625 0  0.8125 0.15625 0  0.84375 0.15625 0  0.875 0.15625 0  0.90625 0.15625 0  0.9375 0.15625 0  0.96875 0.15625 0  1 0.15625 0  0 0.1875 0  0.03125 0.1875 0  0.0625 0.1875 0  0.09375 0.1875 0  0.125 0.1875 0  0.15625 0.1875 0  0.1875 0.1875 0  0.21875 0.1875 0  0.25 0.1875 0  0.28125 0.1875 0  0.3125 0.1875 0  0.34375 0.1875 0  0.375 0.1875 0  0.40625 0.1875 0  0.4375 0.1875 0  0.46875 0.1875 0  0.5 0.1875 0  0.53125 0.1875 0  0.5625 0.1875 0  0.59375 0.1875 0  0.625 0.1875 0  0.65625 0.1875 0  0.6875 0.1875 0  0.71875 0.1875 0  0.75 0.1875 0  0.78125 0.1875 0  0.8125 0.1875 0  0.84375 0.1875 0  0.875 0.1875 0  0.90625 0.1875 0  0.9375 0.1875 0  0.96875 0.1875 0  1 0.1875 0  0 0.21875 0  0.03125 0.21875 0  0.0625 0.21875 0  0.09375 0.21875 0  0.125 0.21875 0  0.15625 0.21875 0  0.1875 0.21875 0  0.21875 0.21875 0  0.25 0.21875 0  0.28125 0.21875 0  0.3125 0.21875 0  0.34375 0.21875 0  0.375 0.21875 0  0.40625 0.21875 0  0.4375 0.21875 0  0.46875 0.21875 0  0.5 0.21875 0  0.53125 0.21875 0  0.5625 0.21875 0  0.59375 0.21875 0  0.625 0.21875 0  0.65625 0.21875 0  0.6875 0.21875 0  0.71875 0.21875 0  0.75 0.21875 0  0.78125 0.21875 0  0.8125 0.21875 0  0.84375 0.21875 0  0.875 0.21875 0  0.90625 0.21875 0  0.9375 0.21875 0  0.96875 0.21875 0  1 0.21875 0  0 0.25 0  0.03125 0.25 0  0.0625 0.25 0  0.09375 0.25 0  0.125 0.25 0  0.15625 0.25 0  0.1875 0.25 0  0.21875 0.25 0  0.25 0.25 0  0.28125 0.25 0  0.3125 0.25 0  0.34375 0.25 0  0.375 0.25 0  0.40625 0.25 0  0.4375 0.25 0  0.46875 0.25 0  0.5 0.25 0  0.53125 0.25 0  0.5625 0.25 0  0.59375 0.25 0  0.625 0.25 0  0.65625 0.25 0  0.6875 0.25 0  0.71875 0.25 0  0.75 0.25 0  0.78125 0.25 0  0.8125 0.25 0  0.84375 0.25 0  0.875 0.25 0  0.90625 0.25 0  0.9375 0.25 0  0.96875 0.25 0  1 0.25 0  0 0.28125 0  0.03125 0.28125 0  0.0625 0.28125 0  0.09375 0.28125 0  0.125 0.28125 0  0.15625 0.28125 0  0.1875 0.28125 0  0.21875 0.28125 0  0.25 0.28125 0  0.28125 0.28125 0  0.3125 0.28125 0  0.34375 0.28125 0  0.375 0.28125 0  0.40625 0.28125 0  0.4375 0.28125 0  0.46875 0.28125 0  0.5 0.28125 0  0.53125 0.28125 0  0.5625 0.28125 0  0.59375 0.28125 0  0.625 0.28125 0  0.65625 0.28125 0  0.6875 0.28125 0  0.71875 0.28125 0  0.75 0.28125 0  0.78125 0.28125 0  0.8125 0.28125 0  0.84375 0.28125 0  0.875 0.28125 0  0.90625 0.28125 0  0.9375 0.28125 0  0.96875 0.28125 0  1 0.28125 0  0 0.3125 0  0.03125 0.3125 0  0.0625 0.3125 0  0.09375 0.3125 0  0.125 0.3125 0  0.15625 0.3125 0  0.1875 0.3125 0  0.21875 0.3125 0  0.25 0.3125 0  0.28125 0.3125 0  0.3125 0.3125 0  0.34375 0.3125 0  0.375 0.3125 0  0.40625 0.3125 0  0.4375 0.3125 0  0.46875 0.3125 0  0.5 0.3125 0  0.53125 0.3125 0  0.5625 0.3125 0  0.59375 0.3125 0  0.625 0.3125 0  0.65625 0.3125 0  0.6875 0.3125 0  0.71875 0.3125 0  0.75 0.3125 0  0.78125 0.3125 0  0.8125 0.3125 0  0.84375 0.3125 0  0.875 0.3125 0  0.90625 0.3125 0  0.9375 0.3125 0  0.96875 0.3125 0  1 0.3125 0  0 0.34375 0  0.03125 0.34375 0  0.0625 0.34375 0  0.09375 0.34375 0  0.125 0.34375 0  0.15625 0.34375 0  0.1875 0.34375 0  0.21875 0.34375 0  0.25 0.34375 0  0.28125 0.34375 0  0.3125 0.34375 0  0.34375 0.34375 0  0.375 0.34375 0  0.40625 0.34375 0  0.4375 0.34375 0  0.46875 0.34375 0  0.5 0.34375 0  0.53125 0.34375 0  0.5625 0.34375 0  0.59375 0.34375 0  0.625 0.34375 0  0.65625 0.34375 0  0.6875 0.34375 0  0.71875 0.34375 0  0.75 0.34375 0  0.78125 0.34375 0  0.8125 0.34375 0  0.84375 0.34375 0  0.875 0.34375 0  0.90625 0.34375 0  0.9375 0.34375 0  0.96875 0.34375 0  1 0.34375 0  0 0.375 0  0.03125 0.375 0  0.0625 0.375 0  0.09375 0.375 0  0.125 0.375 0  0.15625 0.375 0  0.1875 0.375 0  0.21875 0.375 0  0.25 0.375 0  0.28125 0.375 0  0.3125 0.375 0  0.34375 0.375 0  0.375 0.375 0  0.40625 0.375 0  0.4375 0.375 0  0.46875 0.375 0  0.5 0.375 0  0.53125 0.375 0  0.5625 0.375 0  0.59375 0.375 0  0.625 0.375 0  0.65625 0.375 0  0.6875 0.375 0  0.71875 0.375 0  0.75 0.375 0  0.78125 0.375 0  0.8125 0.375 0  0.84375 0.375 0  0.875 0.375 0  0.90625 0.375 0  0.9375 0.375 0  0.96875 0.375 0  1 0.375 0  0 0.40625 0  0.03125 0.40625 0  0.0625 0.40625 0  0.09375 0.40625 0  0.125 0.40625 0  0.15625 0.40625 0  0.1875 0.40625 0  0.21875 0.40625 0  0.25 0.40625 0  0.28125 0.40625 0  0.3125 0.40625 0  0.34375 0.40625 0  0.375 0.40625 0  0.40625 0.40625 0  0.4375 0.40625 0  0.46875 0.40625 0  0.5 0.40625 0  0.53125 0.40625 0  0.5625 0.40625 0  0.59375 0.40625 0  0.625 0.40625 0  0.65625 0.40625 0  0.6875 0.40625 0  0.71875 0.40625 0  0.75 0.40625 0  0.78125 0.40625 0  0.8125 0.40625 0  0.84375 0.40625 0  0.875 0.40625 0  0.90625 0.40625 0  0.9375 0.40625 0  0.96875 0.40625 0  1 0.40625 0  0 0.4375 0  0.03125 0.4375 0  0.0625 0.4375 0  0.09375 0.4375 0  0.125 0.4375 0  0.15625 0.4375 0  0.1875 0.4375 0  0.21875 0.4375 0  0.25 0.4375 0  0.28125 0.4375 0  0.3125 0.4375 0  0.34375 0.4375 0  0.375 0.4375 0  0.40625 0.4375 0  0.4375 0.4375 0  0.46875 0.4375 0  0.5 0.4375 0  0.53125 0.4375 0  0.5625 0.4375 0  0.59375 0.4375 0  0.625 0.4375 0  0.65625 0.4375 0  0.6875 0.4375 0  0.71875 0.4375 0  0.75 0.4375 0  0.78125 0.4375 0  0.8125 0.4375 0  0.84375 0.4375 0  0.875 0.4375 0  0.90625 0.4375 0  0.9375 0.4375 0  0.96875 0.4375 0  1 0.4375 0  0 0.46875 0  0.03125 0.46875 0  0.0625 0.46875 0  0.09375 0.46875 0  0.125 0.46875 0  0.15625 0.46875 0  0.1875 0.46875 0  0.21875 0.46875 0  0.25 0.46875 0  0.28125 0.46875 0  0.3125 0.46875 0  0.34375 0.46875 0  0.375 0.46875 0  0.40625 0.46875 0  0.4375 0.46875 0  0.46875 0.46875 0  0.5 0.46875 0  0.53125 0.46875 0  0.5625 0.46875 0  0.59375 0.46875 0  0.625 0.46875 0  0.65625 0.46875 0  0.6875 0.46875 0  0.71875 0.46875 0  0.75 0.46875 0  0.78125 0.46875 0  0.8125 0.46875 0  0.84375 0.46875 0  0.875 0.46875 0  0.90625 0.46875 0  0.9375 0.46875 0  0.96875 0.46875 0  1 0.46875 0  0 0.5 0  0.03125 0.5 0  0.0625 0.5 0  0.09375 0.5 0  0.125 0.5 0  0.15625 0.5 0  0.1875 0.5 0  0.21875 0.5 0  0.25 0.5 0  0.28125 0.5 0  0.3125 0.5 0  0.34375 0.5 0  0.375 0.5 0  0.40625 0.5 0  0.4375 0.5 0  0.46875 0.5 0  0.5 0.5 0  0.53125 0.5 0  0.5625 0.5 0  0.59375 0.5 0  0.625 0.5 0  0.65625 0.5 0  0.6875 0.5 0  0.71875 0.5 0  0.75 0.5 0  0.78125 0.5 0  0.8125 0.5 0  0.84375 0.5 0  0.875 0.5 0  0.90625 0.5 0  0.9375 0.5 0  0.96875 0.5 0  1 0.5 0  0 0.53125 0  0.03125 0.53125 0  0.0625 0.53125 0  0.09375 0.53125 0  0.125 0.53125 0  0.15625 0.53125 0  0.1875 0.53125 0  0.21875 0.53125 0  0.25 0.53125 0  0.28125 0.53125 0  0.3125 0.53125 0  0.34375 0.53125 0  0.375 0.53125 0  0.40625 0.53125 0  0.4375 0.53125 0  0.46875 0.53125 0  0.5 0.53125 0  0.53125 0.53125 0  0.5625 0.53125 0  0.59375 0.53125 0  0.625 0.53125 0  0.65625 0.53125 0  0.6875 0.53125 0  0.71875 0.53125 0  0.75 0.53125 0  0.78125 0.531
[...]
<PointData  Scalars="u"> 
<DataArray  type="Float64"  Name="u"  format="ascii">0.0000000000000000e+00  0.0000000000000000e+00  0.0000000000000000e+00  0.0000000000000000e+00  0.0000000000000000e+00  0.0000000000000000e+00  0.0000000000000000e+00  0.0000000000000000e+00  0.0000000000000000e+00  0.0000000000000000e+00  0.0000000000000000e+00  0.0000000000000000e+00  0.0000000000000000e+00  0.0000000000000000e+00  0.0000000000000000e+00  0.0000000000000000e+00  0.0000000000000000e+00  0.0000000000000000e+00  0.0000000000000000e+00  0.0000000000000000e+00  0.0000000000000000e+00  0.0000000000000000e+00  0.0000000000000000e+00  0.0000000000000000e+00  0.0000000000000000e+00  0.0000000000000000e+00  0.0000000000000000e+00  0.0000000000000000e+00  0.0000000000000000e+00  0.0000000000000000e+00  0.0000000000000000e+00  0.0000000000000000e+00  0.0000000000000000e+00  0.0000000000000000e+00  1.4588280667338381e-02  2.9133036833440176e-02  4.3543198266409983e-02  5.7649264879502553e-02  7.1177689304767131e-02  8.3751070827045637e-02  9.4927887778794948e-02  1.0428579617955294e-01  1.1153580160367543e-01  1.1664714655533269e-01  1.1992194045060631e-01  1.2192024434031032e-01  1.2327627732752258e-01  1.2454888394983224e-01  1.2614768960410555e-01  1.2830729829327822e-01  1.3107169486135228e-01  1.3426659543735936e-01  1.3746051005894508e-01  1.3994158090085695e-01  1.4075982180465393e-01  1.3888093108025557e-01  1.3345469453723224e-01  1.2418144020563904e-01  1.1156578413023130e-01  9.6667440420372716e-02  8.0573503327920307e-02  6.4092173592979973e-02  4.7692043479355246e-02  3.1562518433265380e-02  1.5702803421533695e-02  0.0000000000000000e+00  0.0000000000000000e+00  2.9277343492647493e-02  5.8506672773102127e-02  8.7544502281480113e-02  1.1607675961166021e-01  1.4355515268926167e-01  1.6918387034806312e-01  1.9199518489884707e-01  2.1102902739424359e-01  2.2558185017828067e-01  2.3551772167206145e-01  2.4151698173987327e-01  2.4488542798451510e-01  2.4704305466808166e-01  2.4918314121922680e-01  2.5215198509722436e-01  2.5643503258839656e-01  2.6214786645601573e-01  2.6898005212802012e-01  2.7609011080877283e-01  2.8200957705468915e-01  2.8468154704644189e-01  2.8176585027137546e-01  2.7119328761691286e-01  2.5211034508831259e-01  2.2577728907321706e-01  1.9484444394997696e-01  1.6179541790006360e-01  1.2830968395545339e-01  9.5265420248324337e-02  6.2953077444285646e-02  3.1293041843694754e-02  0.0000000000000000e+00  0.0000000000000000e+00  4.4121087250483804e-02  8.8276458095934096e-02  1.3235285658494034e-01  1.7595399486063293e-01  2.1826815260437879e-01  2.5800284538119767e-01  2.9348153940384791e-01  3.2295477694683461e-01  3.4499157833616290e-01  3.5910233804502922e-01  3.6653898144180092e-01  3.6986846484027125e-01  3.7164188074167304e-01  3.7381094066506904e-01  3.7767513384504203e-01  3.8398120439287153e-01  3.9297262233223107e-01  4.0430646098098855e-01  4.1682405104629622e-01  4.2825670489815226e-01  4.3512878668007338e-01  4.3323284891114350e-01  4.1833019017571876e-01  3.8811380559529851e-01  3.4532756855464858e-01  2.9577667190271550e-01  2.4398567493273374e-01  1.9250744042571741e-01  1.4241897435727471e-01  9.3895248246044644e-02  4.6613485229869300e-02  0.0000000000000000e+00  0.0000000000000000e+00  5.9087020206378030e-02  1.1842957980429238e-01  1.7808766077858584e-01  2.3771345804165600e-01  2.9629418869169577e-01  3.5193967466229398e-01  4.0194826559633601e-01  4.4338459356758497e-01  4.7346357463706135e-01  4.9054141009582014e-01  4.9687267284473330e-01  4.9762406188396735e-01  4.9706889744966265e-01  4.9797618082721418e-01  5.0200323352966736e-01  5.1011093456341949e-01  5.2275425914323337e-01  5.3978550245539680e-01  5.6001867719945142e-01  5.8047397238794940e-01  5.9577085939883079e-01  5.9912120503299027e-01  5.8214185752877234e-01  5.3794895237621987e-01  4.7276854993233364e-01  3.9991795348546033e-01  3.2666604205811894e-01  2.5595077050282200e-01  1.8847783929297740e-01  1.2390356431095027e-01  6.1414705909047629e-02  0.0000000000000000e+00  0.0000000000000000e+00  7.4003867562973613e-02  1.4867208936084572e-01  2.2445795780866717e-01  3.0131756158293432e-01  3.7824563830717206e-01  4.5268206824773322e-01  5.2031416193913294e-01  5.7662806051176685e-01  6.1648584042402887e-01  6.3433002635125801e-01  6.3441231048885305e-01  6.2831883077977435e-01  6.2266819657139727e-01  6.2066250850614613e-01  6.2390707443419191e-01  6.3338948321059918e-01  6.4987413692872298e-01  6.7384292992668315e-01  7.0483319774146891e-01  7.3975028368322626e-01  7.7029920870307178e-01  7.8727777418401246e-01  7.7503931908507528e-01  7.1050035707144799e-01  6.0940824100717395e-01  5.0576393629672944e-01  4.0788219059144615e-01  3.1699643871761646e-01  2.3226146304292555e-01  1.5223519914924330e-01  7.5340844013961475e-02  0.0000000000000000e+00  0.0000000000000000e+00  8.8512286720005384e-02  1.7830207664400954e-01  2.7051076255920686e-01  3.6586132241740454e-01  4.6394530287771135e-01  5.6172149723214193e-01  6.5170240000212443e-01  7.2820551464755656e-01  7.8351962898909711e-01  7.9793519365382559e-01  7.8019198701666259e-01  7.6062584850942316e-01  7.4666754577982253e-01  7.4014260938975329e-01  7.4163101055713121e-01  7.5175604005916030e-01  7.7165299379787999e-01  8.0309589907926626e-01  8.4802959825151325e-01  9.0579993413671556e-01  9.6087853411324187e-01  9.9211348114709541e-01  9.9258722218424145e-01  9.0679827185252138e-01  7.5054668111075484e-01  6.0748420271623571e-01  4.8343646071339957e-01  3.7293592176868251e-01  2.7210482961411331e-01  1.7793834256200697e-01  8.7959574155812792e-02  0.0000000000000000e+00  0.0000000000000000e+00  1.0204683224351253e-01  2.0611575960251410e-01  3.1432863005012740e-01  4.2888913972838633e-01  5.5148398233926155e-01  6.8039211534163868e-01  7.9867779805655326e-01  8.8826426155931759e-01  9.6385738599376480e-01  9.8120047727482029e-01  9.3031420968399225e-01  8.8980469331979317e-01  8.6568308256416437e-01  8.5404650674189864e-01  8.5316463089082817e-01  8.6283075359751127e-01  8.8442767313940451e-01  9.2149364205107764e-01  9.8115226686799262e-01  1.0624088002472791e+00  1.1482506140495268e+00  1.1856664099488823e+00  1.1640230667095879e+00  1.0559709381787981e+00  8.6581471234284202e-01  6.9214340850388578e-01  5.4701985046679780e-01  4.2043321268013645e-01  3.0618376813628051e-01  2.0004298422798672e-01  9.8847907150681646e-02  0.0000000000000000e+00  0.0000000000000000e+00  1.1390703051597730e-01  2.3047896642248097e-01  3.5284794475649506e-01  4.8530214247128317e-01  6.3451488844568549e-01  7.9683292856519305e-01  9.4679785703064911e-01  1.0350262598147453e+00  1.0850840540649724e+00  1.1153936651375922e+00  1.0579933281825504e+00  1.0054898519284361e+00  9.7505312886698092e-01  9.6000949103975464e-01  9.5696619671935457e-01  9.6482181289762325e-01  9.8464456561757341e-01  1.0203152443321246e+00  1.0808059935775265e+00  1.1726663933327983e+00  1.2521920817579617e+00  1.2914412362708343e+00  1.2598883928659295e+00  1.1400033259594513e+00  9.3722336289395713e-01  7.5047766294439888e-01  5.9384874024372680e-01  4.5697661042273474e-01  3.3316725935861813e-01  2.1786509177019658e-01  1.0771488296716560e-01  0.0000000000000000e+00  0.0000000000000000e+00  1.2348856376354744e-01  2.4981804767174953e-01  3.8245539231350956e-01  5.2655399003890624e-01  6.9145087171242769e-01  8.8301608258882158e-01  1.0392289965036234e+00  1.1178566752267600e+00  1.1692719848553861e+00  1.2053676335384851e+00  1.1540717531216300e+00  1.1023829544515540e+00  1.0722333750974795e+00  1.0571400435697962e+00  1.0530318320034922e+00  1.0580328716391936e+00  1.0722566012182753e+00  1.0976554273221959e+00  1.1375332518905175e+00  1.1936325844316296e+00  1.2498242827901003e+00  1.2914110218861075e+00  1.2673630944171994e+00  1.1599576754210101e+00  9.6545846031276461e-01  7.8111205570006659e-01  6.2285931350314194e-01  4.8196254066693944e-01  3.5274710542458598e-01  2.3125839038862647e-01  1.1450271692150063e-01  0.0000000000000000e+00  0.0000000000000000e+00  1.3064682371975311e-01  2.6368624537538832e-01  4.0187216763251116e-01  5.4873683804814066e-01  7.0890245129457674e-01  8.8695370833443821e-01  1.0620094184679156e+00  1.1712200526223446e+00  1.2273299938052187e+00  1.2661551239014666e+00  1.2241638564869435e+00  1.1813408463767003e+00  1.1578907185534366e+00  1.1467827324907596e+00  1.1434762181815639e+00  1.1455233045429309e+00  1.1522332472761450e+00  1.1641210118490273e+00  1.1817402194879323e+00  1.2032892334601841e+00  1.2208727532117918e+00  1.2256113864091476e+00  1.1965964449360358e+00  1.1201338649266710e+00  9.5651538544103099e-01  7.8818251257955529e-01  6.3655445358844598e-01  4.9685830001568154e-01  3.6577030826390539e-01  2.4068725956443504e-01  1.1941723506422582e-01  0.0000000000000000e+00  0.0000000000000000e+00  1.3585450903080518e-01  2.7329329040992750e-01  4.1394975131737982e-01  5.5943022199125036e-01  7.1077743572518481e-01  8.6663007162549777e-01  1.0185569071290230e+00  1.1459564277847130e+00  1.2463809418644554e+00  1.2914028163991425e+00  1.2689601905503318e+00  1.2448086542280683e+00  1.2350371595599694e+00  1.2324297079227411e+00  1.2323643651783744e+00  1.2321518931255857e+00  1.2308472054755060e+00  1.2286953822941091e+00  1.2258933134909735e+00  1.2208269470727280e+00  1.2087043658537309e+00  1.1824341450835945e+00  1.1319345100968157e+00  1.0506318235404006e+00  9.2527063563007872e-01  7.8112075008299864e-01  6.4041299354281245e-01  5.0479079569477503e-01  3.7400381000185562e-01  2.4710401106127400e-01  1.2287570573095138e-01  0.0000000000000000e+00  0.0000000000000000e+00  1.3993900245407587e-01  2.8060459472478716e-01  4.2259189064120889e-01  5.6612014288010093e-01  7.1049329615324297e-01  8.5306384966165605e-01  9.8788184953340696e-01  1.1062196845271426e+00  1.2044534532841200e+00  1.2678900669809929e+00  1.2895237585831949e+00  1.2980160804038166e+00  1.3091253684679669e+00  1.3196379629129065e+00  1.3255022499197340e+00  1.3239703648030519e+00  1.3143949090510840e+00  1.2979898701250321e+00  1.2763577440520211e+00  1.2494335167555644e+00  1.2146366305743477e+00  1.1673342448361252e+00  1.1017472658882315e+00  1.0135457982418616e+00  9.0078893514863312e-01  7.7318750231704958e-01  6.4130394150818648e-01  5.0956360039133108e-01  3.7959443627031619e-01  2.5167221641027948e-01  1.2539033212945222e-01  0.0000000000000000e+00  0.0000000000000000e+00  1.4377430763796822e-01  2.8754675039406846e-01  4.3112153340118881e-01  5.7386928138406079e-01  7.1438767366789757e-01  8.5008550425786822e-01  9.7695305824057443e-01  1.0902323625393235e+00  1.1862342861766013e+00  1.2602607636098841e+00  1.3124605673774306e+00  1.3529357069976136e+00  1.3881822881658510e+00  1.4158998562308882e+00  1.4304558227297994e+00  1.4282408122424559e+00  1.4091434042645368e+00  1.3768229615101599e+00  1.3363473274763153e+00  1.2900475666069162e+00  1.2370835415543302e+00  1.1743618328932970e+00  1.0977950811247197e+00  1.0043458229444142e+00  8.9412162369724058e-01  7.7209511381988249e-01  6.4417960572305255e-01  5.1425956350163204e-01  3.8440201979014610e-01  2.5543850371738841e-01  1.2743073010382408e-01  0.0000000000000000e+00  0.0000000000000000e+00  1.4810509985582762e-01  2.9566945680188306e-01  4.4194699480870642e-01  5.8579594386903311e-01  7.2551842802940913e-01  8.5880095320300764e-01  9.8289224692200705e-01  1.0951736082619765e+00  1.1939577196988846e+00  1.2786756292853307e+00  1.3515233387636656e+00  1.4176233006949663e+00  1.4794187573832007e+00  1.5300544046816218e+00  1.5569478556898579e+00  1.5541452571057746e+00  1.5217997488402095e+00  1.4683892408617087e+00  1.4066047657613887e+00  1.3416133737564142e+00  1.2733947602876496e+00  1.1991269094885662e+00  1.1143593395994189e+00  1.0152442835214699e+00  9.0221871028787437e-01  7.7945390660211755e-01  6.5120071989952877e-01  5.2060417366091760e-01  3.8959559899474477e-01  2.5909981643003405e-01  1.2931812119030056e-01  0.0000000000000000e+00  0.0000000000000000e+00  1.5348858208665356e-01  3.0609655409913850e-01  4.5671775461607228e-01  6.0385388978862442e-01  7.4556504741792140e-01  8.7963016331074295e-01  1.0039777851697724e+00  1.1173220899757654e+00  1.2197857829719434e+00  1.3132813186290695e+00  1.4018956289973414e+00  1.4913892708397511e+00  1.5867758144483952e+00  1.6730535413351113e+00  1.7183056549593276e+00  1.7147409887720375e+00  1.6605631816829174e+00  1.5732058482305378e+00  1.4847501714741824e+00  1.4008754362121025e+00  1.3199958618154648e+00  1.2383800570765855e+00  1.1489713725638451e+00  1.0434212164615311e+00  9.2304880247956766e-01  7.9488967977095626e-01  6.6272983698345544e-01  5.2909266001029354e-01  3.9557305214914062e-01  2.6290946126811920e-01  1.3117200027426368e-01  0.0000000000000000e+00  0.0000000000000000e+00  1.6028662907690891e-01  3.1957031495171856e-01  4.7655073983938839e-01  6.2941691314818260e-01  7.7581966141553949e-01  9.1319234651957437e-01  1.0395009033973397e+00  1.1541656166519250e+00  1.2587382507209988e+00  1.3572331690605284e+00  1.4561396852792399e+00  1.5642917460555159e+00  1.6935017824095451e+00  1.8325210252645183e+00  1.9040349885066374e+00  1.9014780126771715e+00  1.8229156468564613e+00  1.6843257930245645e+00  1.5632522814208476e+00  1.4618127638628502e+00  1.3717352763770998e+00  1.2895491414274622e+00  1.2035383345548984e+00  1.0898771023870828e+00  9.5472475564138659e-01  8.1696306063766766e-01  6.7793689079667685e-01  5.3922188234070823e-01  4.0200982383741940e-01  2.6666735076565046e-01  1.3289635118992404e-01  0.0000000000000000e+00  0.0000000000000000e+00  1.6864813891852790e-01  3.3645913627574148e-01  5.0215115404962640e-01  6.6362123753737690e-01  8.1778211645065280e-01  9.6096325110867087e-01  1.0902399540576662e+00  1.2050597307473843e+00  1.3080766426627517e+00  1.4054055280774385e+00  1.5060852336200881e+00  1.6214110534399628e+00  1.7659602153326386e+00  1.9300543877936873e+00  2.0195235161449649e+00  2.0198847754872600e+00  1.9308302249403251e+00  1.7684256167781707e+00  1.6273131888323711e+00  1.5162620094216721e+00  1.4201564046711452e+00  1.3337795097570164e+00  1.2596331001826835e+00  1.1463647094775036e+00  9.9216186917598836e-01  8.4300332233205466e-01  6.9507894612554111e-01  5.4963717112821908e-01  4.0791215700053268e-01  2.6973991436140538e-01  1.3418752967403624e-01  0.0000000000000000e+00  0.0000000000000000e+00  1.7843849487242647e-01  3.5664073695065768e-01  5.3371957786254887e-01  7.0743532061701431e-01  8.7355097760868783e-01  1.0259515062236113e+00  1.1591868272597587e+00  1.2718959427903476e+00  1.3675887396191269e+00  1.4550340768774379e+00  1.5465112237340157e+00  1.6547789957066898e+00  1.7946495882211599e+00  1.9580204878877885e+00  2.0500566176999504e+00  2.0536314139186551e+00  1.9678655238500764e+00  1.8069550518971904e+00  1.6667222524715082e+00  1.5608224739471326e+00  1.4635768336197326e+00  1.3551476780547178e+00  1.2536387026647304e+00  1.1421921027268727e+00  1.0127655207200090e+00  8.7058622038600086e-01  7.1203392641446239e-01  5.5815535345965117e-01  4.1161477172605454e-01  2.7108847525058272e-01  1.3455969480819285e-01  0.0000000000000000e+00  0.0000000000000000e+00  1.8909161512064068e-01  3.7919027844884007e-01  5.7050615574218555e-01  7.6129863771552375e-01  9.4604721404961711e-01  1.1136308945679256e+00  1.2526355651003058e+00  1.3601068169809876e+00  1.4400331183964017e+00  1.5056103620844512e+00  1.5754202498497001e+00  1.6621420895004611e+00  1.7757261841398335e+00  1.9132397390938554e+00  1.9951094055823264e+00  2.0027780186189412e+00  1.9359623830050630e+00  1.8006765952970376e+00  1.6773517691538351e+00  1.5868870391254699e+00  1.5079949689529868e+00  1.3740882023053684e+00  1.2466698842417441e+00  1.1296615342779266e+00  1.0193555470597180e+00  9.0234543363484332e-01  7.2665611993337875e-01  5.6117889999080872e-01  4.1066713111616548e-01  2.6933990927368662e-01  1.3341037247445164e-01  0.0000000000000000e+00  0.0000000000000000e+00  1.9940013506467880e-01  4.0184249088172719e-01  6.0979201352329715e-01  8.2382814874968813e-01  1.0389473795170405e+00  1.2336827316395276e+00  1.3818754055016287e+00  1.4804869989420255e+00  1.5317337920181526e+00  1.5570984284468923e+00  1.5927981216523353e+00  1.6482895469239369e+00  1.7237877036759752e+00  1.8100351096549909e+00  1.8704141630727678e+00  1.8824748734408592e+00  1.8434547927259808e+00  1.7583251058941136e+00  1.6607270224300972e+00  1.5765723215639960e+00  1.5070740216761054e+00  1.3760431770865693e+00  1.2334227894460736e+00  1.1141618679467742e+00  1.0058960299255024e+00  8.9036931291097876e-01  7.1839224493088893e-01  5.5108694229280519e-01  4.0189607127562260e-01  2.6308939070521520e-01  1.3018682465440609e-01  0.0000000000000000e+00  0.0000000000000000e+00  2.0736143641994609e-01  4.2037898168904025e-01  6.4508920481383958e-01  8.8808464933779563e-01  1.1406904902689430e+00  1.3743091727012626e+00  1.5352135758081571e+00  1.6230901572503906e+00  1.6394287455637668e+00  1.6035479134759791e+00  1.5958294628861101e+00  1.6200603984174968e+00  1.6669517836301471e+00  1.7237376543636702e+00  1.7701930204383340e+00  1.7894348015556147e+00  1.7731155176209239e+00  1.7192872342576422e+00  1.6362295769264696e+00  1.5418176358833622e+00  1.4522847543425765e+00  1.3490009987429676e+00  1.2009132418478157e+00  1.0763067654116087e+00  9.7289413236344680e-01  8.3238938882940805e-01  6.7771131701541454e-01  5.2470227875939845e-01  3.8407677518223626e-01  2.5181254886394366e-01  1.2468365534284888e-01  0.0000000000000000e+00  0.0000000000000000e+00  2.1038409974206157e-01  4.2866793175207996e-01  6.6429972942185245e-01  9.3066894672028211e-01  1.2200462804375181e+00  1.4566978379331226e+00  1.6160940670070589e+00  1.6920588154376839e+00  1.6843863376707697e+00  1.6122038242875125e+00  1.5723675750439916e+00  1.5747305641834866e+00  1.6059303195662593e+00  1.6536433067479819e+00  1.7031855056256511e+00  1.7379981724623892e+00  1.7462574820385564e+00  1.7152600169957137e+00  1.6285803562103600e+00  1.5073482583274544e+00  1.3859865509894489e+00  1.2659005379622925e+00  1.1338732742839921e+00  1.0057812709111471e+00  8.8988637583020558e-01  7.6121619725123080e-01  6.2255452543592305e-01  4.8768165171082090e-01  3.5918014267417164e-01  2.3624483847135591e-01  1.1715546043663980e-01  0.0000000000000000e+00  0.0000000000000000e+00  2.0622916505377994e-01  4.2107175795692536e-01  6.5501510251387984e-01  9.2323324576028876e-01  1.2206464484115080e+00  1.4554846805164525e+00  1.6050159514714031e+00  1.6695592511476633e+00  1.6489047104999759e+00  1.5638470931245336e+00  1.5120883060464640e+00  1.5059889294467812e+00  1.5339276988367478e+00  1.5873924316267267e+00  1.6567130263880465e+00  1.7189975192652185e+00  1.7494798043861783e+00  1.7425510653346903e+00  1.6458703432558679e+00  1.4780545070046480e+00  1.3230578670171236e+00  1.1839347736159946e+00  1.0516572894946783e+00  9.2642968099542966e-01  8.0757067338377819e-01  6.8752359299428045e-01  5.6569211977247935e-01  4.4592713588968036e-01  3.2992590389547560e-01  2.1762821038212388e-01  1.0809091468455710e-01  0.0000000000000000e+00  0.0000000000000000e+00  1.9416398807941576e-01  3.9580473632334484e-01  6.1365395070259365e-01  8.5954460877855166e-01  1.1372620325799307e+00  1.3636410100690612e+00  1.5034769667930445e+00  1.5570641069889781e+00  1.5327566092828058e+00  1.4573692756000909e+00  1.4113392087031087e+00  1.4084146007409033e+00  1.4417006185325287e+00  1.5107406895950877e+00  1.6078634928609186e+00  1.7074767540524658e+00  1.7507802578821918e+00  1.7298894623890562e+00  1.6193221408916179e+00  1.4258135914226966e+00  1.2486984794048785e+00  1.0991169480401326e+00  9.6594850241453523e-01  8.4384286429091004e-01  7.2916827421645591e-01  6.1793502298569591e-01  5.0867417105491985e-01  4.0191685442747549e-01  2.9808532306526303e-01  1.9698984347840764e-01  9.7949400882663268e-02  0.0000000000000000e+00  0.0000000000000000e+00  1.7528152281923623e-01  3.5567212433733891e-01  5.4631096116898137e-01  7.5181345989777704e-01  9