<?xml version="1.0"?>
<VTKFile type="UnstructuredGrid"  version="0.1"  >
<UnstructuredGrid>
<Piece  NumberOfPoints="1089" NumberOfCells="2048">
<Points>
<DataArray  type="Float64"  NumberOfComponents="3"  format="ascii">0 0 0  0.03125 0 0  0.0625 0 0  0.09375 0 0  0.125 0 0  0.15625 0 0  0.1875 0 0  0.21875 0 0  0.25 0 0  0.28125 0 0  0.3125 0 0  0.34375 0 0  0.375 0 0  0.40625 0 0  0.4375 0 0  0.46875 0 0  0.5 0 0  0.53125 0 0  0.5625 0 0  0.59375 0 0  0.625 0 0  0.65625 0 0  0.6875 0 0  0.71875 0 0  0.75 0 0  0.78125 0 0  0.8125 0 0  0.84375 0 0  0.875 0 0  0.90625 0 0  0.9375 0 0  0.96875 0 0  1 0 0  0 0.03125 0  0.03125 0.03125 0  0.0625 0.03125 0  0.09375 0.03125 0  0.125 0.03125 0  0.15625 0.03125 0  0.1875 0.03125 0  0.21875 0.03125 0  0.25 0.03125 0  0.28125 0.03125 0  0.3125 0.03125 0  0.34375 0.03125 0  0.375 0.03125 0  0.40625 0.03125 0  0.4375 0.03125 0  0.46875 0.03125 0  0.5 0.03125 0  0.53125 0.03125 0  0.5625 0.03125 0  0.59375 0.03125 0  0.625 0.03125 0  0.65625 0.03125 0  0.6875 0.03125 0  0.71875 0.03125 0  0.75 0.03125 0  0.78125 0.03125 0  0.8125 0.03125 0  0.84375 0.03125 0  0.875 0.03125 0  0.90625 0.03125 0  0.9375 0.03125 0  0.96875 0.03125 0  1 0.03125 0  0 0.0625 0  0.03125 0.0625 0  0.0625 0.0625 0  0.09375 0.0625 0  0.125 0.0625 0  0.15625 0.0625 0  0.1875 0.0625 0  0.21875 0.0625 0  0.25 0.0625 0  0.28125 0.0625 0  0.3125 0.0625 0  0.34375 0.0625 0  0.375 0.0625 0  0.40625 0.0625 0  0.4375 0.0625 0  0.46875 0.0625 0  0.5 0.0625 0  0.53125 0.0625 0  0.5625 0.0625 0  0.59375 0.0625 0  0.625 0.0625 0  0.65625 0.0625 0  0.6875 0.0625 0  0.71875 0.0625 0  0.75 0.0625 0  0.78125 0.0625 0  0.8125 0.0625 0  0.84375 0.0625 0  0.875 0.0625 0  0.90625 0.0625 0  0.9375 0.0625 0  0.96875 0.0625 0  1 0.0625 0  0 0.09375 0  0.03125 0.09375 0  0.0625 0.09375 0  0.09375 0.09375 0  0.125 0.09375 0  0.15625 0.09375 0  0.1875 0.09375 0  0.21875 0.09375 0  0.25 0.09375 0  0.28125 0.09375 0  0.3125 0.09375 0  0.34375 0.09375 0  0.375 0.09375 0  0.40625 0.09375 0  0.4375 0.09375 0  0.46875 0.09375 0  0.5 0.09375 0  0.53125 0.09375 0  0.5625 0.09375 0  0.59375 0.09375 0  0.625 0.09375 0  0.65625 0.09375 0  0.6875 0.09375 0  0.71875 0.09375 0  0.75 0.09375 0  0.78125 0.09375 0  0.8125 0.09375 0  0.84375 0.09375 0  0.875 0.09375 0  0.90625 0.09375 0  0.9375 0.09375 0  0.96875 0.09375 0  1 0.09375 0  0 0.125 0  0.03125 0.125 0  0.0625 0.125 0  0.09375 0.125 0  0.125 0.125 0  0.15625 0.125 0  0.1875 0.125 0  0.21875 0.125 0  0.25 0.125 0  0.28125 0.125 0  0.3125 0.125 0  0.34375 0.125 0  0.375 0.125 0  0.40625 0.125 0  0.4375 0.125 0  0.46875 0.125 0  0.5 0.125 0  0.53125 0.125 0  0.5625 0.125 0  0.59375 0.125 0  0.625 0.125 0  0.65625 0.125 0  0.6875 0.125 0  0.71875 0.125 0  0.75 0.125 0  0.78125 0.125 0  0.8125 0.125 0  0.84375 0.125 0  0.875 0.125 0  0.90625 0.125 0  0.9375 0.125 0  0.96875 0.125 0  1 0.125 0  0 0.15625 0  0.03125 0.15625 0  0.0625 0.15625 0  0.09375 0.15625 0  0.125 0.15625 0  0.15625 0.15625 0  0.1875 0.15625 0  0.21875 0.15625 0  0.25 0.15625 0  0.28125 0.15625 0  0.3125 0.15625 0  0.34375 0.15625 0  0.375 0.15625 0  0.40625 0.15625 0  0.4375 0.15625 0  0.46875 0.15625 0  0.5 0.15625 0  0.53125 0.15625 0  0.5625 0.15625 0  0.59375 0.15625 0  0.625 0.15625 0  0.65625 0.15625 0  0.6875 0.15625 0  0.71875 0.15625 0  0.75 0.15625 0  0.78125 0.15625 0  0.8125 0.15625 0  0.84375 0.15625 0  0.875 0.15625 0  0.90625 0.15625 0  0.9375 0.15625 0  0.96875 0.15625 0  1 0.15625 0  0 0.1875 0  0.03125 0.1875 0  0.0625 0.1875 0  0.09375 0.1875 0  0.125 0.1875 0  0.15625 0.1875 0  0.1875 0.1875 0  0.21875 0.1875 0  0.25 0.1875 0  0.28125 0.1875 0  0.3125 0.1875 0  0.34375 0.1875 0  0.375 0.1875 0  0.40625 0.1875 0  0.4375 0.1875 0  0.46875 0.1875 0  0.5 0.1875 0  0.53125 0.1875 0  0.5625 0.1875 0  0.59375 0.1875 0  0.625 0.1875 0  0.65625 0.1875 0  0.6875 0.1875 0  0.71875 0.1875 0  0.75 0.1875 0  0.78125 0.1875 0  0.8125 0.1875 0  0.84375 0.1875 0  0.875 0.1875 0  0.90625 0.1875 0  0.9375 0.1875 0  0.96875 0.1875 0  1 0.1875 0  0 0.21875 0  0.03125 0.21875 0  0.0625 0.21875 0  0.09375 0.21875 0  0.125 0.21875 0  0.15625 0.21875 0  0.1875 0.21875 0  0.21875 0.21875 0  0.25 0.21875 0  0.28125 0.21875 0  0.3125 0.21875 0  0.34375 0.21875 0  0.375 0.21875 0  0.40625 0.21875 0  0.4375 0.21875 0  0.46875 0.21875 0  0.5 0.21875 0  0.53125 0.21875 0  0.5625 0.21875 0  0.59375 0.21875 0  0.625 0.21875 0  0.65625 0.21875 0  0.6875 0.21875 0  0.71875 0.21875 0  0.75 0.21875 0  0.78125 0.21875 0  0.8125 0.21875 0  0.84375 0.21875 0  0.875 0.21875 0  0.90625 0.21875 0  0.9375 0.21875 0  0.96875 0.21875 0  1 0.21875 0  0 0.25 0  0.03125 0.25 0  0.0625 0.25 0  0.09375 0.25 0  0.125 0.25 0  0.15625 0.25 0  0.1875 0.25 0  0.21875 0.25 0  0.25 0.25 0  0.28125 0.25 0  0.3125 0.25 0  0.34375 0.25 0  0.375 0.25 0  0.40625 0.25 0  0.4375 0.25 0  0.46875 0.25 0  0.5 0.25 0  0.53125 0.25 0  0.5625 0.25 0  0.59375 0.25 0  0.625 0.25 0  0.65625 0.25 0  0.6875 0.25 0  0.71875 0.25 0  0.75 0.25 0  0.78125 0.25 0  0.8125 0.25 0  0.84375 0.25 0  0.875 0.25 0  0.90625 0.25 0  0.9375 0.25 0  0.96875 0.25 0  1 0.25 0  0 0.28125 0  0.03125 0.28125 0  0.0625 0.28125 0  0.09375 0.28125 0  0.125 0.28125 0  0.15625 0.28125 0  0.1875 0.28125 0  0.21875 0.28125 0  0.25 0.28125 0  0.28125 0.28125 0  0.3125 0.28125 0  0.34375 0.28125 0  0.375 0.28125 0  0.40625 0.28125 0  0.4375 0.28125 0  0.46875 0.28125 0  0.5 0.28125 0  0.53125 0.28125 0  0.5625 0.28125 0  0.59375 0.28125 0  0.625 0.28125 0  0.65625 0.28125 0  0.6875 0.28125 0  0.71875 0.28125 0  0.75 0.28125 0  0.78125 0.28125 0  0.8125 0.28125 0  0.84375 0.28125 0  0.875 0.28125 0  0.90625 0.28125 0  0.9375 0.28125 0  0.96875 0.28125 0  1 0.28125 0  0 0.3125 0  0.03125 0.3125 0  0.0625 0.3125 0  0.09375 0.3125 0  0.125 0.3125 0  0.15625 0.3125 0  0.1875 0.3125 0  0.21875 0.3125 0  0.25 0.3125 0  0.28125 0.3125 0  0.3125 0.3125 0  0.34375 0.3125 0  0.375 0.3125 0  0.40625 0.3125 0  0.4375 0.3125 0  0.46875 0.3125 0  0.5 0.3125 0  0.53125 0.3125 0  0.5625 0.3125 0  0.59375 0.3125 0  0.625 0.3125 0  0.65625 0.3125 0  0.6875 0.3125 0  0.71875 0.3125 0  0.75 0.3125 0  0.78125 0.3125 0  0.8125 0.3125 0  0.84375 0.3125 0  0.875 0.3125 0  0.90625 0.3125 0  0.9375 0.3125 0  0.96875 0.3125 0  1 0.3125 0  0 0.34375 0  0.03125 0.34375 0  0.0625 0.34375 0  0.09375 0.34375 0  0.125 0.34375 0  0.15625 0.34375 0  0.1875 0.34375 0  0.21875 0.34375 0  0.25 0.34375 0  0.28125 0.34375 0  0.3125 0.34375 0  0.34375 0.34375 0  0.375 0.34375 0  0.40625 0.34375 0  0.4375 0.34375 0  0.46875 0.34375 0  0.5 0.34375 0  0.53125 0.34375 0  0.5625 0.34375 0  0.59375 0.34375 0  0.625 0.34375 0  0.65625 0.34375 0  0.6875 0.34375 0  0.71875 0.34375 0  0.75 0.34375 0  0.78125 0.34375 0  0.8125 0.34375 0  0.84375 0.34375 0  0.875 0.34375 0  0.90625 0.34375 0  0.9375 0.34375 0  0.96875 0.34375 0  1 0.34375 0  0 0.375 0  0.03125 0.375 0  0.0625 0.375 0  0.09375 0.375 0  0.125 0.375 0  0.15625 0.375 0  0.1875 0.375 0  0.21875 0.375 0  0.25 0.375 0  0.28125 0.375 0  0.3125 0.375 0  0.34375 0.375 0  0.375 0.375 0  0.40625 0.375 0  0.4375 0.375 0  0.46875 0.375 0  0.5 0.375 0  0.53125 0.375 0  0.5625 0.375 0  0.59375 0.375 0  0.625 0.375 0  0.65625 0.375 0  0.6875 0.375 0  0.71875 0.375 0  0.75 0.375 0  0.78125 0.375 0  0.8125 0.375 0  0.84375 0.375 0  0.875 0.375 0  0.90625 0.375 0  0.9375 0.375 0  0.96875 0.375 0  1 0.375 0  0 0.40625 0  0.03125 0.40625 0  0.0625 0.40625 0  0.09375 0.40625 0  0.125 0.40625 0  0.15625 0.40625 0  0.1875 0.40625 0  0.21875 0.40625 0  0.25 0.40625 0  0.28125 0.40625 0  0.3125 0.40625 0  0.34375 0.40625 0  0.375 0.40625 0  0.40625 0.40625 0  0.4375 0.40625 0  0.46875 0.40625 0  0.5 0.40625 0  0.53125 0.40625 0  0.5625 0.40625 0  0.59375 0.40625 0  0.625 0.40625 0  0.65625 0.40625 0  0.6875 0.40625 0  0.71875 0.40625 0  0.75 0.40625 0  0.78125 0.40625 0  0.8125 0.40625 0  0.84375 0.40625 0  0.875 0.40625 0  0.90625 0.40625 0  0.9375 0.40625 0  0.96875 0.40625 0  1 0.40625 0  0 0.4375 0  0.03125 0.4375 0  0.0625 0.4375 0  0.09375 0.4375 0  0.125 0.4375 0  0.15625 0.4375 0  0.1875 0.4375 0  0.21875 0.4375 0  0.25 0.4375 0  0.28125 0.4375 0  0.3125 0.4375 0  0.34375 0.4375 0  0.375 0.4375 0  0.40625 0.4375 0  0.4375 0.4375 0  0.46875 0.4375 0  0.5 0.4375 0  0.53125 0.4375 0  0.5625 0.4375 0  0.59375 0.4375 0  0.625 0.4375 0  0.65625 0.4375 0  0.6875 0.4375 0  0.71875 0.4375 0  0.75 0.4375 0  0.78125 0.4375 0  0.8125 0.4375 0  0.84375 0.4375 0  0.875 0.4375 0  0.90625 0.4375 0  0.9375 0.4375 0  0.96875 0.4375 0  1 0.4375 0  0 0.46875 0  0.03125 0.46875 0  0.0625 0.46875 0  0.09375 0.46875 0  0.125 0.46875 0  0.15625 0.46875 0  0.1875 0.46875 0  0.21875 0.46875 0  0.25 0.46875 0  0.28125 0.46875 0  0.3125 0.46875 0  0.34375 0.46875 0  0.375 0.46875 0  0.40625 0.46875 0  0.4375 0.46875 0  0.46875 0.46875 0  0.5 0.46875 0  0.53125 0.46875 0  0.5625 0.46875 0  0.59375 0.46875 0  0.625 0.46875 0  0.65625 0.46875 0  0.6875 0.46875 0  0.71875 0.46875 0  0.75 0.46875 0  0.78125 0.46875 0  0.8125 0.46875 0  0.84375 0.46875 0  0.875 0.46875 0  0.90625 0.46875 0  0.9375 0.46875 0  0.96875 0.46875 0  1 0.46875 0  0 0.5 0  0.03125 0.5 0  0.0625 0.5 0  0.09375 0.5 0  0.125 0.5 0  0.15625 0.5 0  0.1875 0.5 0  0.21875 0.5 0  0.25 0.5 0  0.28125 0.5 0  0.3125 0.5 0  0.34375 0.5 0  0.375 0.5 0  0.40625 0.5 0  0.4375 0.5 0  0.46875 0.5 0  0.5 0.5 0  0.53125 0.5 0  0.5625 0.5 0  0.59375 0.5 0  0.625 0.5 0  0.65625 0.5 0  0.6875 0.5 0  0.71875 0.5 0  0.75 0.5 0  0.78125 0.5 0  0.8125 0.5 0  0.84375 0.5 0  0.875 0.5 0  0.90625 0.5 0  0.9375 0.5 0  0.96875 0.5 0  1 0.5 0  0 0.53125 0  0.03125 0.53125 0  0.0625 0.53125 0  0.09375 0.53125 0  0.125 0.53125 0  0.15625 0.53125 0  0.1875 0.53125 0  0.21875 0.53125 0  0.25 0.53125 0  0.28125 0.53125 0  0.3125 0.53125 0  0.34375 0.53125 0  0.375 0.53125 0  0.40625 0.53125 0  0.4375 0.53125 0  0.46875 0.53125 0  0.5 0.53125 0  0.53125 0.53125 0  0.5625 0.53125 0  0.59375 0.53125 0  0.625 0.53125 0  0.65625 0.53125 0  0.6875 0.53125 0  0.71875 0.53125 0  0.75 0.53125 0  0.78125 0.531
[...]
<PointData  Scalars="u"> 
<DataArray  type="Float64"  Name="u"  format="ascii">0.0000000000000000e+00  0.0000000000000000e+00  0.0000000000000000e+00  0.0000000000000000e+00  0.0000000000000000e+00  0.0000000000000000e+00  0.0000000000000000e+00  0.0000000000000000e+00  0.0000000000000000e+00  0.0000000000000000e+00  0.0000000000000000e+00  0.0000000000000000e+00  0.0000000000000000e+00  0.0000000000000000e+00  0.0000000000000000e+00  0.0000000000000000e+00  0.0000000000000000e+00  0.0000000000000000e+00  0.0000000000000000e+00  0.0000000000000000e+00  0.0000000000000000e+00  0.0000000000000000e+00  0.0000000000000000e+00  0.0000000000000000e+00  0.0000000000000000e+00  0.0000000000000000e+00  0.0000000000000000e+00  0.0000000000000000e+00  0.0000000000000000e+00  0.0000000000000000e+00  0.0000000000000000e+00  0.0000000000000000e+00  0.0000000000000000e+00  0.0000000000000000e+00  1.0112997472133836e-03  2.0674363458121981e-03  3.1893366416158456e-03  4.3749855678290690e-03  5.5867640685509472e-03  6.7453190730647891e-03  7.7360601406307773e-03  8.4323155354116674e-03  8.7332316732960918e-03  8.6137078985431201e-03  8.1629710458656166e-03  7.5605589098913370e-03  7.0049549625534153e-03  6.6625228464288581e-03  6.6515831596821867e-03  7.0449944841098778e-03  7.8724766971142723e-03  9.1118375707074234e-03  1.0667756551275160e-02  1.2347913814048161e-02  1.3858196440025453e-02  1.4841590288131382e-02  1.4969589392894351e-02  1.4097765826879813e-02  1.2398182742188461e-02  1.0257819535892759e-02  8.0448585291656594e-03  5.9920571033301112e-03  4.1928791255818002e-03  2.6417845694416179e-03  1.2754156075888909e-03  0.0000000000000000e+00  0.0000000000000000e+00  2.0959634383185721e-03  4.2933154562558896e-03  6.6519201104896491e-03  9.1796399643611498e-03  1.1802853705147330e-02  1.4347679830032385e-02  1.6549887068221632e-02  1.8105700789338840e-02  1.8754473308012318e-02  1.8407120812678937e-02  1.7277118377564449e-02  1.5813471730485362e-02  1.4483487568529929e-02  1.3651476343156946e-02  1.3562436486757671e-02  1.4366317647004663e-02  1.6133554428934681e-02  1.8837698291398568e-02  2.2300867891003689e-02  2.6122037939123509e-02  2.9643053834852159e-02  3.2022268523959473e-02  3.2416624865321354e-02  3.0396847130134283e-02  2.6431341855414237e-02  2.1566811459004100e-02  1.6690475278693787e-02  1.2292076325182720e-02  8.5254778250921908e-03  5.3366378401975608e-03  2.5645230535287218e-03  0.0000000000000000e+00  0.0000000000000000e+00  3.3070474314559678e-03  6.8057121124323787e-03  1.0629775475951271e-02  1.4826461837262666e-02  1.9296430671840607e-02  2.3742750546876530e-02  2.7673537630394165e-02  3.0494672966793066e-02  3.1632484451615532e-02  3.0798302420454761e-02  2.8422233920236635e-02  2.5484957324998697e-02  2.2888745021434859e-02  2.1246731259113708e-02  2.0929649031982508e-02  2.2163387302883225e-02  2.5083006105861061e-02  2.9708712631527880e-02  3.5831920368795983e-02  4.2833644091435766e-02  4.9549385443687484e-02  5.4384093977797983e-02  5.5482805828275125e-02  5.1618952194269138e-02  4.3934802763584531e-02  3.4976016555225364e-02  2.6468795264655818e-02  1.9142287336024997e-02  1.3095592723963496e-02  8.1188468559321610e-03  3.8781278302005167e-03  0.0000000000000000e+00  0.0000000000000000e+00  4.6773877986379447e-03  9.6940029255456681e-03  1.5320486713093160e-02  2.1707094395572168e-02  2.8767975696134471e-02  3.6048464988612201e-02  4.2685761385621378e-02  4.7611889696703227e-02  4.9618318287038853e-02  4.7764314645505401e-02  4.2917735272181297e-02  3.7315519798072121e-02  3.2590514200590517e-02  2.9615645457263817e-02  2.8825448663003999e-02  3.0490229654043223e-02  3.4847505834870993e-02  4.2079649523661604e-02  5.2105327564045539e-02  6.4154819281438305e-02  7.6321434205431610e-02  8.5917434345478494e-02  8.8996968284992498e-02  8.1712176404397041e-02  6.6988203006427979e-02  5.1329000881011347e-02  3.7633037271876141e-02  2.6566756398490619e-02  1.7860869716375894e-02  1.0943705318368172e-02  5.1911197190389405e-03  0.0000000000000000e+00  0.0000000000000000e+00  6.1986514746328629e-03  1.2965681661262614e-02  2.0811035678795789e-02  3.0117543427870909e-02  4.0933780990127143e-02  5.2636044926934092e-02  6.3700336066255164e-02  7.2409000072634649e-02  7.6380001015097496e-02  7.2413126777002582e-02  6.2368891500391911e-02  5.1922633213334561e-02  4.3742936696410599e-02  3.8722206688552745e-02  3.7127037957157973e-02  3.9169118725672455e-02  4.5236822449803628e-02  5.5903088275170917e-02  7.1627392050415309e-02  9.1846773323576922e-02  1.1336538973564000e-01  1.3258548092727829e-01  1.4166736395743584e-01  1.2720389655000100e-01  9.7476671406075868e-02  7.0699447391469342e-02  4.9822989858501400e-02  3.4212947977058615e-02  2.2572025045079575e-02  1.3662139114356323e-02  6.4351797286235140e-03  0.0000000000000000e+00  0.0000000000000000e+00  7.7953574615370067e-03  1.6482391525469337e-02  2.6956298039578774e-02  4.0077525679220412e-02  5.6367057376619172e-02  7.5183366987218253e-02  9.3488820301701539e-02  1.0920843592647535e-01  1.1864129290544427e-01  1.1021223784561426e-01  8.8300085024147781e-02  6.9335151418391222e-02  5.6027216918444436e-02  4.8220771033734240e-02  4.5472166810424673e-02  4.7728545484767695e-02  5.5566223259180925e-02  7.0311756365493833e-02  9.3923028559042276e-02  1.2754943349103087e-01  1.6412258048291722e-01  1.9341613775314728e-01  2.1331788234766194e-01  1.9099897158976964e-01  1.3443016779235184e-01  9.1024858186424626e-02  6.1593788855522025e-02  4.1225400640848169e-02  2.6753601584977794e-02  1.6026720084161051e-02  7.5052439882583180e-03  0.0000000000000000e+00  0.0000000000000000e+00  9.3031545491528284e-03  1.9887753039311357e-02  3.3190310555809496e-02  5.0943705668783493e-02  7.5013986421905515e-02  1.0585556092064050e-01  1.3522876766517600e-01  1.5395818047831980e-01  1.7196878503098242e-01  1.6291671624922566e-01  1.1984383613026846e-01  8.7851619130863715e-02  6.8304011295633960e-02  5.7414255257626376e-02  5.3315929475002070e-02  5.5456929695651448e-02  6.4548775735702904e-02  8.2944181726041025e-02  1.1571342994246249e-01  1.6393294723529275e-01  2.2000962924096748e-01  2.5491812092477845e-01  2.6462035883817470e-01  2.3336287450770374e-01  1.6193469827828760e-01  1.0622113365189217e-01  7.0316137491710479e-02  4.6377108521030656e-02  2.9811716181952389e-02  1.7754046179568165e-02  8.2869607726489408e-03  0.0000000000000000e+00  0.0000000000000000e+00  1.0478120234022274e-02  2.2585350671519636e-02  3.8329696382101201e-02  6.0669488205147289e-02  9.4517025497872401e-02  1.3941058235637921e-01  1.8247168751747173e-01  1.9596563894052157e-01  1.9509119552197329e-01  1.9130973814604887e-01  1.4265473977694482e-01  1.0250117350568203e-01  7.8633291003572192e-02  6.5480624782361121e-02  6.0197010498103984e-02  6.1737349032198408e-02  7.0649665817618876e-02  8.9484571244569142e-02  1.2437852157016006e-01  1.8091998621511338e-01  2.3533638999940854e-01  2.7388733627818851e-01  2.8066425904637948e-01  2.4589404949492893e-01  1.7103656373704873e-01  1.1203409429148124e-01  7.3988409372785766e-02  4.8722493039779061e-02  3.1299267302179433e-02  1.8638359389905365e-02  8.6999766822921723e-03  0.0000000000000000e+00  0.0000000000000000e+00  1.1079854479610551e-02  2.3909301439731655e-02  4.0714868435289993e-02  6.4984680661068606e-02  1.0323610623286755e-01  1.6082606143231742e-01  2.0297355432095823e-01  2.0658332072313437e-01  2.0310889792734155e-01  1.9986118170125594e-01  1.5245508898363186e-01  1.1096405492032486e-01  8.6011866211083268e-02  7.2154166637286216e-02  6.6211954560301753e-02  6.6754236467016712e-02  7.3808021291942610e-02  8.8775397784457671e-02  1.1430516822833782e-01  1.5282797493115832e-01  1.9684964406040728e-01  2.4023099571414119e-01  2.5449626728685543e-01  2.2988940846665476e-01  1.6265666620382591e-01  1.0800360280345568e-01  7.2217311628385308e-02  4.8055077891009976e-02  3.1126038401679108e-02  1.8645646081604284e-02  8.7340697714264059e-03  0.0000000000000000e+00  0.0000000000000000e+00  1.1034956740100500e-02  2.3630280384740261e-02  3.9668169475721514e-02  6.1731734599973741e-02  9.3497809166230197e-02  1.3936423402130071e-01  1.8920893910747358e-01  2.0747694203526715e-01  2.0310563566060105e-01  1.9798120426534579e-01  1.5289247027937847e-01  1.1390819182037697e-01  9.0834601334966611e-02  7.8070710818910205e-02  7.2301782313144644e-02  7.1856780563737094e-02  7.6322434455904989e-02  8.6207301707292586e-02  1.0237544256368626e-01  1.2480034700527150e-01  1.5039012533273466e-01  1.7582013178179534e-01  1.9032450445627730e-01  1.8651512042474197e-01  1.3938640427729523e-01  9.5912935966929486e-02  6.6035435572671247e-02  4.4947249348039051e-02  2.9604942183449133e-02  1.7940171247467277e-02  8.4601923991325101e-03  0.0000000000000000e+00  0.0000000000000000e+00  1.0517544329778743e-02  2.2237862845709177e-02  3.6496454798328790e-02  5.4821483049707458e-02  7.8757243336234226e-02  1.0891140399913202e-01  1.4217094987366680e-01  1.6815726283280136e-01  1.8678094082336516e-01  1.8131324346946251e-01  1.4387044774969662e-01  1.1231301688834058e-01  9.4406316938966423e-02  8.4761904911454633e-02  8.0241326557042747e-02  7.9151649225978588e-02  8.0931467443253691e-02  8.5807407269952299e-02  9.4184764475112009e-02  1.0575964091413273e-01  1.1875222414883435e-01  1.3025652143674796e-01  1.3543606089591256e-01  1.3089424504724562e-01  1.0797826571750711e-01  7.9903751082394447e-02  5.7701564050742359e-02  4.0598445041585933e-02  2.7367808675966641e-02  1.6842991003148448e-02  8.0136533731149442e-03  0.0000000000000000e+00  0.0000000000000000e+00  9.8284305214502831e-03  2.0491708121325544e-02  3.2837693115716944e-02  4.7661138728621072e-02  6.5471713563488618e-02  8.5934264567451610e-02  1.0700966960546913e-01  1.2499792824146141e-01  1.3888328379913151e-01  1.4034419139620447e-01  1.2481993592692464e-01  1.0835031213884265e-01  9.9173910237332935e-02  9.4789864095952747e-02  9.2724127035213433e-02  9.1406310169419386e-02  9.0415326091232470e-02  9.0327598277860938e-02  9.2016256998358026e-02  9.5640851933204665e-02  1.0022150994505909e-01  1.0378906944951426e-01  1.0362295678218854e-01  9.7402846097123991e-02  8.3430586966700082e-02  6.6132780899808272e-02  5.0088981082062146e-02  3.6456482977372050e-02  2.5168231089887430e-02  1.5737161871526639e-02  7.5561290151756784e-03  0.0000000000000000e+00  0.0000000000000000e+00  9.2673861919294210e-03  1.9075964781003280e-02  2.9924291189990619e-02  4.2182553350658618e-02  5.5936247476304768e-02  7.0741998801010841e-02  8.5415162979223733e-02  9.8248867948473262e-02  1.0787217200892867e-01  1.1185031486197627e-01  1.1009986538448008e-01  1.0806008981196490e-01  1.0912647206624182e-01  1.1198416528540031e-01  1.1368431641325237e-01  1.1237749721226840e-01  1.0790015289818496e-01  1.0194196263310511e-01  9.6936388099289075e-02  9.3945198399647517e-02  9.2543432344102616e-02  9.1268162704997768e-02  8.8102051241740864e-02  8.1345794450266642e-02  7.0601874934294623e-02  5.7789888307822591e-02  4.5106303672670052e-02  3.3628780450277770e-02  2.3632287512674821e-02  1.4956380773012834e-02  7.2318586857272379e-03  0.0000000000000000e+00  0.0000000000000000e+00  9.0773117797968046e-03  1.8500480975949918e-02  2.8547218118142891e-02  3.9356110104330266e-02  5.0843104272794933e-02  6.2631430991954271e-02  7.4065924057794705e-02  8.4414045114887454e-02  9.3205249697920434e-02  1.0027791743464608e-01  1.0680260788314100e-01  1.1560654374800990e-01  1.2829178480785394e-01  1.4156002883876784e-01  1.4896802773479242e-01  1.4762828256691121e-01  1.3747474229894505e-01  1.2260692127456192e-01  1.0935628450775553e-01  9.9893140000859401e-02  9.3852087773319853e-02  8.9645229579064317e-02  8.4886086110187692e-02  7.7349642566028262e-02  6.6885228921369333e-02  5.5100991586434285e-02  4.3429181365500225e-02  3.2680003219567787e-02  2.3134600648604776e-02  1.4716415898739716e-02  7.1374040220719207e-03  0.0000000000000000e+00  0.0000000000000000e+00  9.4431551316040818e-03  1.9135241176533823e-02  2.9232804718978000e-02  3.9740247330189347e-02  5.0467249692869733e-02  6.1055952642547269e-02  7.1120900279732308e-02  8.0497481868390106e-02  8.9524884487834841e-02  9.9284943704828821e-02  1.1198134200792915e-01  1.3097189704665396e-01  1.5985562861255129e-01  1.9121143019231998e-01  2.0783310959229317e-01  2.0625795178072359e-01  1.8522587587488784e-01  1.5365574527742906e-01  1.2871856191833395e-01  1.1225214546457325e-01  1.0259728246183823e-01  9.7450897567427058e-02  9.2849646404853617e-02  8.3934201965229008e-02  7.1117618474655114e-02  5.7770259774982187e-02  4.5143965078825919e-02  3.3774201116362715e-02  2.3807639749223584e-02  1.5098601675364668e-02  7.3096646166672385e-03  0.0000000000000000e+00  0.0000000000000000e+00  1.0509415676061323e-02  2.1274995840268290e-02  3.2418599020714312e-02  4.3852847321453149e-02  5.5235292936534300e-02  6.6053727249303570e-02  7.5910142112331713e-02  8.4913804843690335e-02  9.4013497203297103e-02  1.0526832568183836e-01  1.2210455461647729e-01  1.4967352302461134e-01  1.9588369093678196e-01  2.5623201657783651e-01  2.8699537369126210e-01  2.8609892748560517e-01  2.5227731226032873e-01  1.9305575929081276e-01  1.5223445282027465e-01  1.2886694229147502e-01  1.1701024680285022e-01  1.1441511246919413e-01  1.1432353359450532e-01  1.0268307172627880e-01  8.2887213609977445e-02  6.5417906541052034e-02  5.0060235105793056e-02  3.6802475354437862e-02  2.5576364264199566e-02  1.6052676575040649e-02  7.7231406430870765e-03  0.0000000000000000e+00  0.0000000000000000e+00  1.2388352506893545e-02  2.5176156837960637e-02  3.8560535667712489e-02  5.2397224918124180e-02  6.6070065285566568e-02  7.8578069140905454e-02  8.9082567956621672e-02  9.7651663771092218e-02  1.0567394421639600e-01  1.1613870047033038e-01  1.3367963014644615e-01  1.6472885002273049e-01  2.1886190363524727e-01  2.9283418519359522e-01  3.3337148368361941e-01  3.3416154185136249e-01  2.9511133542794682e-01  2.2360619035979126e-01  1.7325140524827914e-01  1.4669775469552501e-01  1.3375813080624413e-01  1.3102446852561289e-01  1.4013473611410637e-01  1.3036789964935805e-01  1.0045452240514663e-01  7.7379044451309664e-02  5.7797767799684555e-02  4.1420119046022268e-02  2.8160969187432144e-02  1.7393024523509402e-02  8.2877698554208283e-03  0.0000000000000000e+00  0.0000000000000000e+00  1.5138850549042739e-02  3.1027543696650402e-02  4.8133043782394060e-02  6.6365292033882931e-02  8.4678528528150512e-02  1.0093367183378832e-01  1.1303088788531848e-01  1.2059964640017944e-01  1.2533723974411171e-01  1.3142288150973891e-01  1.4499822065057563e-01  1.7306538750095052e-01  2.2517853424291451e-01  2.9899891743438645e-01  3.4100397537889127e-01  3.4358729805754107e-01  3.0659748693525762e-01  2.3650119825574914e-01  1.8762367932969573e-01  1.6545907136568719e-01  1.5347542992231111e-01  1.3936666444093357e-01  1.3368176239285956e-01  1.2613828414611838e-01  1.1180471491119434e-01  9.3432736414950757e-02  6.7996084616874564e-02  4.6982952613434319e-02  3.1020961831243175e-02  1.8780177281403743e-02  8.8466173657633079e-03  0.0000000000000000e+00  0.0000000000000000e+00  1.8700075291004887e-02  3.8813680595867726e-02  6.1447975086117060e-02  8.6948010059483924e-02  1.1385104391489941e-01  1.3752376730098759e-01  1.5272502197958993e-01  1.5828447793689671e-01  1.5598570187073393e-01  1.5214818549867251e-01  1.5610562186485807e-01  1.7440330361586182e-01  2.1339855227085397e-01  2.7354864479690116e-01  3.1026028635620545e-01  3.1511606091041611e-01  2.8869643818255486e-01  2.3313413643104397e-01  1.9399928201125607e-01  1.8129229418279585e-01  1.8113800181939757e-01  1.5290767488037646e-01  1.3290721423547580e-01  1.2272114817582745e-01  1.1993113826076474e-01  1.1647064567761709e-01  8.0412135823182546e-02  5.2096169295878271e-02  3.3206492171897875e-02  1.9707412731875720e-02  9.1870749860673874e-03  0.0000000000000000e+00  0.0000000000000000e+00  2.2776140286449052e-02  4.8029015273349518e-02  7.8136566622057244e-02  1.1495086462717161e-01  1.5775060111638931e-01  1.9634588519612478e-01  2.1722008591064809e-01  2.1941100872636832e-01  2.0343731865091544e-01  1.7997015558534146e-01  1.6817140899867192e-01  1.7211808321582170e-01  1.9200031900660414e-01  2.2402899330270945e-01  2.4908071890602837e-01  2.5628028567999761e-01  2.4516009318611609e-01  2.1810869452794870e-01  1.9331506559049225e-01  1.8408360959141895e-01  1.8982822717790454e-01  1.6390422024135012e-01  1.3538452143747132e-01  1.2407573645600553e-01  1.2211583039812603e-01  1.1865370551600311e-01  8.3653435456896769e-02  5.2888364396122385e-02  3.3272264462940293e-02  1.9602060301671716e-02  9.1021376439892089e-03  0.0000000000000000e+00  0.0000000000000000e+00  2.6714110231675265e-02  5.7271997705962911e-02  9.6067435348007046e-02  1.4864767958477423e-01  2.1252851340751441e-01  2.7396123743367706e-01  3.0336386522534831e-01  3.0170289424469215e-01  2.6889530593304611e-01  2.1365428429552497e-01  1.8093923575868245e-01  1.7075420172494693e-01  1.7723257682034826e-01  1.9412568393271551e-01  2.1180078612246625e-01  2.2271052118871376e-01  2.2354598616389557e-01  2.1346996422293951e-01  1.9632599967295744e-01  1.8079778872771574e-01  1.7476710181137564e-01  1.6583885080264887e-01  1.3399069519323314e-01  1.1909954299363240e-01  1.1918110562901797e-01  9.9075584983635528e-02  7.2410008821003083e-02  4.7782615930308997e-02  3.0699459415446693e-02  1.8277156734766441e-02  8.5279219273034588e-03  0.0000000000000000e+00  0.0000000000000000e+00  2.9525783175348628e-02  6.4065389463585559e-02  1.0994038563220868e-01  1.7680975933116069e-01  2.6312896872554609e-01  3.2723992341020502e-01  3.5765601159336008e-01  3.5190702063676998e-01  3.0874516903453575e-01  2.3633090304900828e-01  1.8889012638192346e-01  1.6950747811703995e-01  1.6950208118717330e-01  1.8260329669797409e-01  2.0231919154229447e-01  2.2146166068925899e-01  2.3523380903188490e-01  2.3720704236094214e-01  2.1714295243066528e-01  1.8575691422678556e-01  1.6115933846965239e-01  1.4222602429804271e-01  1.1958122487113679e-01  1.0156170320520409e-01  9.2481078494712668e-02  7.7196444723577382e-02  5.7140468912149717e-02  3.9957297749496946e-02  2.6550777862348472e-02  1.6114078256430405e-02  7.5929223719309932e-03  0.0000000000000000e+00  0.0000000000000000e+00  3.0287127773291664e-02  6.5932910467727424e-02  1.1382418631969660e-01  1.8464132652096515e-01  2.7849807550357292e-01  3.4432378908250233e-01  3.7191722460751259e-01  3.6270864391216756e-01  3.1530939305484307e-01  2.3870745915966288e-01  1.8739290680067436e-01  1.6563346982226929e-01  1.6547191814782727e-01  1.8265544720773949e-01  2.1363623366976908e-01  2.4773111857853281e-01  2.7298055257038695e-01  2.8796087796075642e-01  2.6127703082464959e-01  2.0207272843306778e-01  1.5763588070368906e-01  1.2704419219298047e-01  1.0318642970910219e-01  8.5106362501727248e-02  7.1800022157760685e-02  5.8537208529379631e-02  4.4765186811432357e-02  3.2409298143159918e-02  2.2114858999507141e-02  1.3662818011078368e-02  6.5026330228453505e-03  0.0000000000000000e+00  0.0000000000000000e+00  2.8684140698948181e-02  6.2076839837849125e-02  1.0603446983317860e-01  1.6912882106421440e-01  2.5653829326561389e-01  3.2214189736442794e-01  3.4817258049921673e-01  3.3600422749379705e-01  2.8934255206642900e-01  2.2088983689795938e-01  1.7493984097689036e-01  1.5661895148961574e-01  1.6060007282522132e-01  1.8720754362410008e-01  2.3400658600134450e-01  2.8899813296809956e-01  3.2018825117510319e-01  3.2523506072814240e-01  2.8922797661729188e-01  2.1402936140362233e-01  1.5569012845744820e-01  1.1762303305161120e-01  9.1240464565508689e-02  7.2318581558754744e-02  5.8179163834077466e-02  4.6240045169954627e-02  3.5493991357258926e-02  2.6076063737239454e-02  1.8071600343664271e-02  1.1303025443109533e-02  5.4205318501909109e-03  0.0000000000000000e+00  0.0000000000000000e+00  2.5166926444896792e-02  5.3731687009158292e-02  8.9468908238450884e-02  1.3650597361976796e-01  1