<?xml version="1.0"?>
<VTKFile type="UnstructuredGrid"  version="0.1"  >
<UnstructuredGrid>
<Piece  NumberOfPoints="1089" NumberOfCells="2048">
<Points>
<DataArray  type="Float64"  NumberOfComponents="3"  format="ascii">0 0 0  0.03125 0 0  0.0625 0 0  0.09375 0 0  0.125 0 0  0.15625 0 0  0.1875 0 0  0.21875 0 0  0.25 0 0  0.28125 0 0  0.3125 0 0  0.34375 0 0  0.375 0 0  0.40625 0 0  0.4375 0 0  0.46875 0 0  0.5 0 0  0.53125 0 0  0.5625 0 0  0.59375 0 0  0.625 0 0  0.65625 0 0  0.6875 0 0  0.71875 0 0  0.75 0 0  0.78125 0 0  0.8125 0 0  0.84375 0 0  0.875 0 0  0.90625 0 0  0.9375 0 0  0.96875 0 0  1 0 0  0 0.03125 0  0.03125 0.03125 0  0.0625 0.03125 0  0.09375 0.03125 0  0.125 0.03125 0  0.15625 0.03125 0  0.1875 0.03125 0  0.21875 0.03125 0  0.25 0.03125 0  0.28125 0.03125 0  0.3125 0.03125 0  0.34375 0.03125 0  0.375 0.03125 0  0.40625 0.03125 0  0.4375 0.03125 0  0.46875 0.03125 0  0.5 0.03125 0  0.53125 0.03125 0  0.5625 0.03125 0  0.59375 0.03125 0  0.625 0.03125 0  0.65625 0.03125 0  0.6875 0.03125 0  0.71875 0.03125 0  0.75 0.03125 0  0.78125 0.03125 0  0.8125 0.03125 0  0.84375 0.03125 0  0.875 0.03125 0  0.90625 0.03125 0  0.9375 0.03125 0  0.96875 0.03125 0  1 0.03125 0  0 0.0625 0  0.03125 0.0625 0  0.0625 0.0625 0  0.09375 0.0625 0  0.125 0.0625 0  0.15625 0.0625 0  0.1875 0.0625 0  0.21875 0.0625 0  0.25 0.0625 0  0.28125 0.0625 0  0.3125 0.0625 0  0.34375 0.0625 0  0.375 0.0625 0  0.40625 0.0625 0  0.4375 0.0625 0  0.46875 0.0625 0  0.5 0.0625 0  0.53125 0.0625 0  0.5625 0.0625 0  0.59375 0.0625 0  0.625 0.0625 0  0.65625 0.0625 0  0.6875 0.0625 0  0.71875 0.0625 0  0.75 0.0625 0  0.78125 0.0625 0  0.8125 0.0625 0  0.84375 0.0625 0  0.875 0.0625 0  0.90625 0.0625 0  0.9375 0.0625 0  0.96875 0.0625 0  1 0.0625 0  0 0.09375 0  0.03125 0.09375 0  0.0625 0.09375 0  0.09375 0.09375 0  0.125 0.09375 0  0.15625 0.09375 0  0.1875 0.09375 0  0.21875 0.09375 0  0.25 0.09375 0  0.28125 0.09375 0  0.3125 0.09375 0  0.34375 0.09375 0  0.375 0.09375 0  0.40625 0.09375 0  0.4375 0.09375 0  0.46875 0.09375 0  0.5 0.09375 0  0.53125 0.09375 0  0.5625 0.09375 0  0.59375 0.09375 0  0.625 0.09375 0  0.65625 0.09375 0  0.6875 0.09375 0  0.71875 0.09375 0  0.75 0.09375 0  0.78125 0.09375 0  0.8125 0.09375 0  0.84375 0.09375 0  0.875 0.09375 0  0.90625 0.09375 0  0.9375 0.09375 0  0.96875 0.09375 0  1 0.09375 0  0 0.125 0  0.03125 0.125 0  0.0625 0.125 0  0.09375 0.125 0  0.125 0.125 0  0.15625 0.125 0  0.1875 0.125 0  0.21875 0.125 0  0.25 0.125 0  0.28125 0.125 0  0.3125 0.125 0  0.34375 0.125 0  0.375 0.125 0  0.40625 0.125 0  0.4375 0.125 0  0.46875 0.125 0  0.5 0.125 0  0.53125 0.125 0  0.5625 0.125 0  0.59375 0.125 0  0.625 0.125 0  0.65625 0.125 0  0.6875 0.125 0  0.71875 0.125 0  0.75 0.125 0  0.78125 0.125 0  0.8125 0.125 0  0.84375 0.125 0  0.875 0.125 0  0.90625 0.125 0  0.9375 0.125 0  0.96875 0.125 0  1 0.125 0  0 0.15625 0  0.03125 0.15625 0  0.0625 0.15625 0  0.09375 0.15625 0  0.125 0.15625 0  0.15625 0.15625 0  0.1875 0.15625 0  0.21875 0.15625 0  0.25 0.15625 0  0.28125 0.15625 0  0.3125 0.15625 0  0.34375 0.15625 0  0.375 0.15625 0  0.40625 0.15625 0  0.4375 0.15625 0  0.46875 0.15625 0  0.5 0.15625 0  0.53125 0.15625 0  0.5625 0.15625 0  0.59375 0.15625 0  0.625 0.15625 0  0.65625 0.15625 0  0.6875 0.15625 0  0.71875 0.15625 0  0.75 0.15625 0  0.78125 0.15625 0  0.8125 0.15625 0  0.84375 0.15625 0  0.875 0.15625 0  0.90625 0.15625 0  0.9375 0.15625 0  0.96875 0.15625 0  1 0.15625 0  0 0.1875 0  0.03125 0.1875 0  0.0625 0.1875 0  0.09375 0.1875 0  0.125 0.1875 0  0.15625 0.1875 0  0.1875 0.1875 0  0.21875 0.1875 0  0.25 0.1875 0  0.28125 0.1875 0  0.3125 0.1875 0  0.34375 0.1875 0  0.375 0.1875 0  0.40625 0.1875 0  0.4375 0.1875 0  0.46875 0.1875 0  0.5 0.1875 0  0.53125 0.1875 0  0.5625 0.1875 0  0.59375 0.1875 0  0.625 0.1875 0  0.65625 0.1875 0  0.6875 0.1875 0  0.71875 0.1875 0  0.75 0.1875 0  0.78125 0.1875 0  0.8125 0.1875 0  0.84375 0.1875 0  0.875 0.1875 0  0.90625 0.1875 0  0.9375 0.1875 0  0.96875 0.1875 0  1 0.1875 0  0 0.21875 0  0.03125 0.21875 0  0.0625 0.21875 0  0.09375 0.21875 0  0.125 0.21875 0  0.15625 0.21875 0  0.1875 0.21875 0  0.21875 0.21875 0  0.25 0.21875 0  0.28125 0.21875 0  0.3125 0.21875 0  0.34375 0.21875 0  0.375 0.21875 0  0.40625 0.21875 0  0.4375 0.21875 0  0.46875 0.21875 0  0.5 0.21875 0  0.53125 0.21875 0  0.5625 0.21875 0  0.59375 0.21875 0  0.625 0.21875 0  0.65625 0.21875 0  0.6875 0.21875 0  0.71875 0.21875 0  0.75 0.21875 0  0.78125 0.21875 0  0.8125 0.21875 0  0.84375 0.21875 0  0.875 0.21875 0  0.90625 0.21875 0  0.9375 0.21875 0  0.96875 0.21875 0  1 0.21875 0  0 0.25 0  0.03125 0.25 0  0.0625 0.25 0  0.09375 0.25 0  0.125 0.25 0  0.15625 0.25 0  0.1875 0.25 0  0.21875 0.25 0  0.25 0.25 0  0.28125 0.25 0  0.3125 0.25 0  0.34375 0.25 0  0.375 0.25 0  0.40625 0.25 0  0.4375 0.25 0  0.46875 0.25 0  0.5 0.25 0  0.53125 0.25 0  0.5625 0.25 0  0.59375 0.25 0  0.625 0.25 0  0.65625 0.25 0  0.6875 0.25 0  0.71875 0.25 0  0.75 0.25 0  0.78125 0.25 0  0.8125 0.25 0  0.84375 0.25 0  0.875 0.25 0  0.90625 0.25 0  0.9375 0.25 0  0.96875 0.25 0  1 0.25 0  0 0.28125 0  0.03125 0.28125 0  0.0625 0.28125 0  0.09375 0.28125 0  0.125 0.28125 0  0.15625 0.28125 0  0.1875 0.28125 0  0.21875 0.28125 0  0.25 0.28125 0  0.28125 0.28125 0  0.3125 0.28125 0  0.34375 0.28125 0  0.375 0.28125 0  0.40625 0.28125 0  0.4375 0.28125 0  0.46875 0.28125 0  0.5 0.28125 0  0.53125 0.28125 0  0.5625 0.28125 0  0.59375 0.28125 0  0.625 0.28125 0  0.65625 0.28125 0  0.6875 0.28125 0  0.71875 0.28125 0  0.75 0.28125 0  0.78125 0.28125 0  0.8125 0.28125 0  0.84375 0.28125 0  0.875 0.28125 0  0.90625 0.28125 0  0.9375 0.28125 0  0.96875 0.28125 0  1 0.28125 0  0 0.3125 0  0.03125 0.3125 0  0.0625 0.3125 0  0.09375 0.3125 0  0.125 0.3125 0  0.15625 0.3125 0  0.1875 0.3125 0  0.21875 0.3125 0  0.25 0.3125 0  0.28125 0.3125 0  0.3125 0.3125 0  0.34375 0.3125 0  0.375 0.3125 0  0.40625 0.3125 0  0.4375 0.3125 0  0.46875 0.3125 0  0.5 0.3125 0  0.53125 0.3125 0  0.5625 0.3125 0  0.59375 0.3125 0  0.625 0.3125 0  0.65625 0.3125 0  0.6875 0.3125 0  0.71875 0.3125 0  0.75 0.3125 0  0.78125 0.3125 0  0.8125 0.3125 0  0.84375 0.3125 0  0.875 0.3125 0  0.90625 0.3125 0  0.9375 0.3125 0  0.96875 0.3125 0  1 0.3125 0  0 0.34375 0  0.03125 0.34375 0  0.0625 0.34375 0  0.09375 0.34375 0  0.125 0.34375 0  0.15625 0.34375 0  0.1875 0.34375 0  0.21875 0.34375 0  0.25 0.34375 0  0.28125 0.34375 0  0.3125 0.34375 0  0.34375 0.34375 0  0.375 0.34375 0  0.40625 0.34375 0  0.4375 0.34375 0  0.46875 0.34375 0  0.5 0.34375 0  0.53125 0.34375 0  0.5625 0.34375 0  0.59375 0.34375 0  0.625 0.34375 0  0.65625 0.34375 0  0.6875 0.34375 0  0.71875 0.34375 0  0.75 0.34375 0  0.78125 0.34375 0  0.8125 0.34375 0  0.84375 0.34375 0  0.875 0.34375 0  0.90625 0.34375 0  0.9375 0.34375 0  0.96875 0.34375 0  1 0.34375 0  0 0.375 0  0.03125 0.375 0  0.0625 0.375 0  0.09375 0.375 0  0.125 0.375 0  0.15625 0.375 0  0.1875 0.375 0  0.21875 0.375 0  0.25 0.375 0  0.28125 0.375 0  0.3125 0.375 0  0.34375 0.375 0  0.375 0.375 0  0.40625 0.375 0  0.4375 0.375 0  0.46875 0.375 0  0.5 0.375 0  0.53125 0.375 0  0.5625 0.375 0  0.59375 0.375 0  0.625 0.375 0  0.65625 0.375 0  0.6875 0.375 0  0.71875 0.375 0  0.75 0.375 0  0.78125 0.375 0  0.8125 0.375 0  0.84375 0.375 0  0.875 0.375 0  0.90625 0.375 0  0.9375 0.375 0  0.96875 0.375 0  1 0.375 0  0 0.40625 0  0.03125 0.40625 0  0.0625 0.40625 0  0.09375 0.40625 0  0.125 0.40625 0  0.15625 0.40625 0  0.1875 0.40625 0  0.21875 0.40625 0  0.25 0.40625 0  0.28125 0.40625 0  0.3125 0.40625 0  0.34375 0.40625 0  0.375 0.40625 0  0.40625 0.40625 0  0.4375 0.40625 0  0.46875 0.40625 0  0.5 0.40625 0  0.53125 0.40625 0  0.5625 0.40625 0  0.59375 0.40625 0  0.625 0.40625 0  0.65625 0.40625 0  0.6875 0.40625 0  0.71875 0.40625 0  0.75 0.40625 0  0.78125 0.40625 0  0.8125 0.40625 0  0.84375 0.40625 0  0.875 0.40625 0  0.90625 0.40625 0  0.9375 0.40625 0  0.96875 0.40625 0  1 0.40625 0  0 0.4375 0  0.03125 0.4375 0  0.0625 0.4375 0  0.09375 0.4375 0  0.125 0.4375 0  0.15625 0.4375 0  0.1875 0.4375 0  0.21875 0.4375 0  0.25 0.4375 0  0.28125 0.4375 0  0.3125 0.4375 0  0.34375 0.4375 0  0.375 0.4375 0  0.40625 0.4375 0  0.4375 0.4375 0  0.46875 0.4375 0  0.5 0.4375 0  0.53125 0.4375 0  0.5625 0.4375 0  0.59375 0.4375 0  0.625 0.4375 0  0.65625 0.4375 0  0.6875 0.4375 0  0.71875 0.4375 0  0.75 0.4375 0  0.78125 0.4375 0  0.8125 0.4375 0  0.84375 0.4375 0  0.875 0.4375 0  0.90625 0.4375 0  0.9375 0.4375 0  0.96875 0.4375 0  1 0.4375 0  0 0.46875 0  0.03125 0.46875 0  0.0625 0.46875 0  0.09375 0.46875 0  0.125 0.46875 0  0.15625 0.46875 0  0.1875 0.46875 0  0.21875 0.46875 0  0.25 0.46875 0  0.28125 0.46875 0  0.3125 0.46875 0  0.34375 0.46875 0  0.375 0.46875 0  0.40625 0.46875 0  0.4375 0.46875 0  0.46875 0.46875 0  0.5 0.46875 0  0.53125 0.46875 0  0.5625 0.46875 0  0.59375 0.46875 0  0.625 0.46875 0  0.65625 0.46875 0  0.6875 0.46875 0  0.71875 0.46875 0  0.75 0.46875 0  0.78125 0.46875 0  0.8125 0.46875 0  0.84375 0.46875 0  0.875 0.46875 0  0.90625 0.46875 0  0.9375 0.46875 0  0.96875 0.46875 0  1 0.46875 0  0 0.5 0  0.03125 0.5 0  0.0625 0.5 0  0.09375 0.5 0  0.125 0.5 0  0.15625 0.5 0  0.1875 0.5 0  0.21875 0.5 0  0.25 0.5 0  0.28125 0.5 0  0.3125 0.5 0  0.34375 0.5 0  0.375 0.5 0  0.40625 0.5 0  0.4375 0.5 0  0.46875 0.5 0  0.5 0.5 0  0.53125 0.5 0  0.5625 0.5 0  0.59375 0.5 0  0.625 0.5 0  0.65625 0.5 0  0.6875 0.5 0  0.71875 0.5 0  0.75 0.5 0  0.78125 0.5 0  0.8125 0.5 0  0.84375 0.5 0  0.875 0.5 0  0.90625 0.5 0  0.9375 0.5 0  0.96875 0.5 0  1 0.5 0  0 0.53125 0  0.03125 0.53125 0  0.0625 0.53125 0  0.09375 0.53125 0  0.125 0.53125 0  0.15625 0.53125 0  0.1875 0.53125 0  0.21875 0.53125 0  0.25 0.53125 0  0.28125 0.53125 0  0.3125 0.53125 0  0.34375 0.53125 0  0.375 0.53125 0  0.40625 0.53125 0  0.4375 0.53125 0  0.46875 0.53125 0  0.5 0.53125 0  0.53125 0.53125 0  0.5625 0.53125 0  0.59375 0.53125 0  0.625 0.53125 0  0.65625 0.53125 0  0.6875 0.53125 0  0.71875 0.53125 0  0.75 0.53125 0  0.78125 0.531
[...]
<PointData  Scalars="u"> 
<DataArray  type="Float64"  Name="u"  format="ascii">0.0000000000000000e+00  0.0000000000000000e+00  0.0000000000000000e+00  0.0000000000000000e+00  0.0000000000000000e+00  0.0000000000000000e+00  0.0000000000000000e+00  0.0000000000000000e+00  0.0000000000000000e+00  0.0000000000000000e+00  0.0000000000000000e+00  0.0000000000000000e+00  0.0000000000000000e+00  0.0000000000000000e+00  0.0000000000000000e+00  0.0000000000000000e+00  0.0000000000000000e+00  0.0000000000000000e+00  0.0000000000000000e+00  0.0000000000000000e+00  0.0000000000000000e+00  0.0000000000000000e+00  0.0000000000000000e+00  0.0000000000000000e+00  0.0000000000000000e+00  0.0000000000000000e+00  0.0000000000000000e+00  0.0000000000000000e+00  0.0000000000000000e+00  0.0000000000000000e+00  0.0000000000000000e+00  0.0000000000000000e+00  0.0000000000000000e+00  0.0000000000000000e+00  1.5180560119257842e-02  3.0307001957206058e-02  4.5278617384267944e-02  5.9915613686224715e-02  7.3934098305667134e-02  8.6947340778332244e-02  9.8506872056262670e-02  1.0818705985596193e-01  1.1570002287976704e-01  1.2102010250933633e-01  1.2445700542277564e-01  1.2657993702366896e-01  1.2803340883522316e-01  1.2938634952724112e-01  1.3105612791919299e-01  1.3328070320614185e-01  1.3610173331039932e-01  1.3933677178470782e-01  1.4254153067278880e-01  1.4498924332217092e-01  1.4571622883512900e-01  1.4367877599122719e-01  1.3802323851942391e-01  1.2845073602391693e-01  1.1546684879745327e-01  1.0013330052285105e-01  8.3543958626092138e-02  6.6518257586503260e-02  4.9537733567714778e-02  3.2803919303395566e-02  1.6326165978504132e-02  0.0000000000000000e+00  0.0000000000000000e+00  3.0459163705137998e-02  6.0849581954342841e-02  9.1008067964558778e-02  1.2059968066718776e-01  1.4905521442178743e-01  1.7556018612595384e-01  1.9913334549767350e-01  2.1880883101431334e-01  2.3388657363504126e-01  2.4424188359309387e-01  2.5056930104661690e-01  2.5419035763322001e-01  2.5654388207463269e-01  2.5884282399944752e-01  2.6194914783838802e-01  2.6635529657543694e-01  2.7217228391036041e-01  2.7907317117369518e-01  2.8619066842151453e-01  2.9202685283365648e-01  2.9449914733765076e-01  2.9125194543745464e-01  2.8021487331279310e-01  2.6054103982639870e-01  2.3348908459274129e-01  2.0170487817005309e-01  1.6768138719959441e-01  1.3312027378777913e-01  9.8926704872349516e-02  6.5416391037053545e-02  3.2530437569174224e-02  0.0000000000000000e+00  0.0000000000000000e+00  4.5887223023399877e-02  9.1777820362019216e-02  1.3752835403031399e-01  1.8271042521359251e-01  2.2648018504013823e-01  2.6751710063021555e-01  3.0412566939136115e-01  3.3455028290993971e-01  3.5736973019657620e-01  3.7211615171184337e-01  3.8005952643003033e-01  3.8378090752609467e-01  3.8585415624773439e-01  3.8825941810743542e-01  3.9232046289771838e-01  3.9879532098233317e-01  4.0792057019123867e-01  4.1932747577919827e-01  4.3181721913818416e-01  4.4307713851311048e-01  4.4959777928567207e-01  4.4715784492311328e-01  4.3153615560169972e-01  4.0045743094618402e-01  3.5664944186091252e-01  3.0587816300352705e-01  2.5267075332724426e-01  1.9961477032789784e-01  1.4783199576526451e-01  9.7538505568961889e-02  4.8444112773838380e-02  0.0000000000000000e+00  0.0000000000000000e+00  6.1427943320939878e-02  1.2306983708090991e-01  1.8494399406961326e-01  2.4665765259239772e-01  3.0715301280425350e-01  3.6450230567403785e-01  4.1598240087171723e-01  4.5865545487345505e-01  4.8976199284203287e-01  5.0770656231187372e-01  5.1475823319337533e-01  5.1607085372738559e-01  5.1593534692720788e-01  5.1715852612441937e-01  5.2143328779346165e-01  5.2973770202279136e-01  5.4251711800465430e-01  5.5958592015253894e-01  5.7969906376914493e-01  5.9981586729451286e-01  6.1452135216750470e-01  6.1702500450610231e-01  5.9901820950364770e-01  5.5374434924429006e-01  4.8735941482240375e-01  4.1301660837807319e-01  3.3797162227395694e-01  2.6522177936251462e-01  1.9554590915310932e-01  1.2866304514114443e-01  6.3806836283188298e-02  0.0000000000000000e+00  0.0000000000000000e+00  7.6904170503597519e-02  1.5441927878793879e-01  2.3294327527719258e-01  3.1237075634696693e-01  3.9163404261348050e-01  4.6812462795507492e-01  5.3751402759517042e-01  5.9529313594561772e-01  6.3638332533880348e-01  6.5536287097826118e-01  6.5647359273506123e-01  6.5117967057640280e-01  6.4610265092020092e-01  6.4450131852445092e-01  6.4803606312251094e-01  6.5772125936923564e-01  6.7430806746142791e-01  6.9822189588362582e-01  7.2890891280342696e-01  7.6318421571652562e-01  7.9273835709394902e-01  8.0836851293557288e-01  7.9462883485717462e-01  7.2893260674203408e-01  6.2676390052785957e-01  5.2153405615546178e-01  4.2157743149906890e-01  3.2825922893615350e-01  2.4085878157479834e-01  1.5802750034717286e-01  7.8252797745622993e-02  0.0000000000000000e+00  0.0000000000000000e+00  9.1950240450288989e-02  1.8511093605285306e-01  2.8055060796493941e-01  3.7890645863032990e-01  4.7967784575132605e-01  5.7975674951300127e-01  6.7167532118955464e-01  7.4974896987847450e-01  8.0636516816478476e-01  8.2227786859457519e-01  8.0612956449700801e-01  7.8773723157691866e-01  7.7456138462403068e-01  7.6854344520192841e-01  7.7035672595271931e-01  7.8066747598833719e-01  8.0059317046126366e-01  8.3182134461866686e-01  8.7614018897611334e-01  9.3272022052657289e-01  9.8614350673822959e-01  1.0154883348054311e+00  1.0137833307017943e+00  9.2679071770884003e-01  7.7007786723921690e-01  6.2558221020401938e-01  4.9927053958216794e-01  3.8599519378277874e-01  2.8208428002395941e-01  1.8466446517906787e-01  9.1341545886270928e-02  0.0000000000000000e+00  0.0000000000000000e+00  1.0599604026570887e-01  2.1393184766739301e-01  3.2583396525099817e-01  4.4378245660057808e-01  5.6930931247398753e-01  7.0056326625290932e-01  8.2080702059283928e-01  9.1222270861737031e-01  9.8906363850888346e-01  1.0081237196669057e+00  9.5978347011530796e-01  9.2101162101809630e-01  8.9793054957939500e-01  8.8691157607447513e-01  8.8638006781966661e-01  8.9619505798391019e-01  9.1771847721970901e-01  9.5436339419669414e-01  1.0129723601256602e+00  1.0923700976817590e+00  1.1756554671944055e+00  1.2107745416686293e+00  1.1871000681370807e+00  1.0778600938961278e+00  8.8742611354864509e-01  7.1236336475055362e-01  5.6477170429663703e-01  4.3509047900059816e-01  3.1738722410303566e-01  2.0759407624124396e-01  1.0264463383621557e-01  0.0000000000000000e+00  0.0000000000000000e+00  1.1834037462159720e-01  2.3924891849706992e-01  3.6573846977507202e-01  5.0192273060137005e-01  6.5419294524068106e-01  8.1878609514694434e-01  9.7059968999628132e-01  1.0612302066719010e+00  1.1135804304309687e+00  1.1456146330433736e+00  1.0911291312634770e+00  1.0407730635900403e+00  1.0115879357333328e+00  9.9725300940443584e-01  9.9457142428804524e-01  1.0025269279236655e+00  1.0221742245223591e+00  1.0572637396855920e+00  1.1164487620166288e+00  1.2059225736258088e+00  1.2827427985822148e+00  1.3193093355943080e+00  1.2855706798790290e+00  1.1643334605701787e+00  9.6107640830617447e-01  7.7271092394526864e-01  6.1332801755077926e-01  4.7303890205768379e-01  3.4543411499024174e-01  2.2612864236079658e-01  1.1186883214175977e-01  0.0000000000000000e+00  0.0000000000000000e+00  1.2838262041773002e-01  2.5950128429050329e-01  3.9669121293697907e-01  5.4490698186917552e-01  7.1313672771819747e-01  9.0690237872574941e-01  1.0654026440207232e+00  1.1471818295825507e+00  1.2012947624714188e+00  1.2393482888958245e+00  1.1911204675890035e+00  1.1417786372288046e+00  1.1130133029306060e+00  1.0986877770889862e+00  1.0949361470914465e+00  1.0999800551755738e+00  1.1139399568176778e+00  1.1386871811054198e+00  1.1773548715626660e+00  1.2314737850268742e+00  1.2850507784190504e+00  1.3234506878659416e+00  1.2966320741519211e+00  1.1872042190312859e+00  9.9166566884063312e-01  8.0526103866329335e-01  6.4388830503121119e-01  4.9924487665440875e-01  3.6592140158810510e-01  2.4012447333552031e-01  1.1895750605933800e-01  0.0000000000000000e+00  0.0000000000000000e+00  1.3598308711632304e-01  2.7425443453512971e-01  4.1744288787284783e-01  5.6891220523155339e-01  7.3304719568873578e-01  9.1412985873384200e-01  1.0915211044006121e+00  1.2036452692945458e+00  1.2628164785549290e+00  1.3039738266565875e+00  1.2652236501749505e+00  1.2248635344048682e+00  1.2028733668086369e+00  1.1925621441137226e+00  1.1895898466010035e+00  1.1916101608769332e+00  1.1979573116104496e+00  1.2091078648768456e+00  1.2255305250538822e+00  1.2453354887099581e+00  1.2606251844896328e+00  1.2625120600002764e+00  1.2303978542908913e+00  1.1508325043289549e+00  9.8516957218939194e-01  8.1414238727797106e-01  6.5896181160502043e-01  5.1518736370651852e-01  3.7970752012703451e-01  2.5005443619684259e-01  1.2412089042163095e-01  0.0000000000000000e+00  0.0000000000000000e+00  1.4161796608775465e-01  2.8472010480038967e-01  4.3082717272759852e-01  5.8141188255483156e-01  7.3736263860859386e-01  8.9717636102297260e-01  1.0524079386794001e+00  1.1827401174553411e+00  1.2856480091725517e+00  1.3333574196051374e+00  1.3141762067390865e+00  1.2924749156911643e+00  1.2841699438311269e+00  1.2823533350258760e+00  1.2825805121074294e+00  1.2822568815509279e+00  1.2804705227204702e+00  1.2774520954586093e+00  1.2733543926515092e+00  1.2665182624750029e+00  1.2521377904110780e+00  1.2231404926620952e+00  1.1695560418840436e+00  1.0849143224730038e+00  9.5635167096606233e-01  8.0873931211143635e-01  6.6402360937166660e-01  5.2400680998712090e-01  3.8857591535196589e-01  2.5688384647081114e-01  1.2778316990637748e-01  0.0000000000000000e+00  0.0000000000000000e+00  1.4611874497323055e-01  2.9286690955980343e-01  4.4073614811598061e-01  5.8983412250188927e-01  7.3935048449432694e-01  8.8654254449181014e-01  1.0254252505148742e+00  1.1473128473484455e+00  1.2485511684522086e+00  1.3147568498222162e+00  1.3391420584727118e+00  1.3498183428436241e+00  1.3623103925092559e+00  1.3735645019412814e+00  1.3796568703678795e+00  1.3779186652948254e+00  1.3677343113789093e+00  1.3503085418933334e+00  1.3272117007599902e+00  1.2983529614900349e+00  1.2611472974890159e+00  1.2109838780854347e+00  1.1421442522958640e+00  1.0503780508520892e+00  9.3385354557257194e-01  8.0220290961678176e-01  6.6592894848983686e-01  5.2952124585801708e-01  3.9469260149036944e-01  2.6179153338823907e-01  1.3046468880686093e-01  0.0000000000000000e+00  0.0000000000000000e+00  1.5036485446634962e-01  3.0062999515961647e-01  4.5049983325175158e-01  5.9924338426360579e-01  7.4535994773034109e-01  8.8617520422396157e-01  1.0176275110418251e+00  1.1349425673998510e+00  1.2344309131978173e+00  1.3114739131172248e+00  1.3662461230170642e+00  1.4086851914823082e+00  1.4452000612397686e+00  1.4735608641466307e+00  1.4882496613104241e+00  1.4857314627182148e+00  1.4659215219646340e+00  1.4324510070176619e+00  1.3903318545112207e+00  1.3418754408427240e+00  1.2862554119113268e+00  1.2204153779184936e+00  1.1403271928755356e+00  1.0430224496369767e+00  9.2866472792921428e-01  8.0222936342819973e-01  6.6964070856760027e-01  5.3483349296999205e-01  3.9993710726292181e-01  2.6583886942853691e-01  1.3264281452940799e-01  0.0000000000000000e+00  0.0000000000000000e+00  1.5510571547988500e-01  3.0956820356731363e-01  4.6254029043574257e-01  6.1278059114639216e-01  7.5849745405065261e-01  8.9729670793597904e-01  1.0263669311266810e+00  1.1430519187517341e+00  1.2456445422435523e+00  1.3335742100437826e+00  1.4090073980358055e+00  1.4769797346534823e+00  1.5398768411532555e+00  1.5909448903677630e+00  1.6178125531770053e+00  1.6146187435226653e+00  1.5815436106937024e+00  1.5269720654871206e+00  1.4634299516217351e+00  1.3960651467805760e+00  1.3249060637630243e+00  1.2472012885507455e+00  1.1585929280082963e+00  1.0553321817261245e+00  9.3790250825426835e-01  8.1048104655432363e-01  6.7734529968139556e-01  5.4168802124636106e-01  4.0549361239564019e-01  2.6973355364056811e-01  1.3464436916165681e-01  0.0000000000000000e+00  0.0000000000000000e+00  1.6089933954202543e-01  3.2080734051633064e-01  4.7851145387075339e-01  6.3241072130106279e-01  7.8047083334132628e-01  9.2039009692386065e-01  1.0500339131043026e+00  1.1680700253014038e+00  1.2745850753621795e+00  1.3714533980700740e+00  1.4626943181685084e+00  1.5539476522963642e+00  1.6500592230078086e+00  1.7362451424836389e+00  1.7811771268122125e+00  1.7771488934418163e+00  1.7224397521907362e+00  1.6342319593508696e+00  1.5440610500200871e+00  1.4576455912561059e+00  1.3735322957525515e+00  1.2881108262421341e+00  1.1944914003893312e+00  1.0845330282031727e+00  9.5958058007666625e-01  8.2660325493523945e-01  6.8941370683885550e-01  5.5058555192498659e-01  4.1176465845591542e-01  2.7373253883352267e-01  1.3659088128916649e-01  0.0000000000000000e+00  0.0000000000000000e+00  1.6810142032584352e-01  3.3507754286999136e-01  4.9951284665190665e-01  6.5948704204455266e-01  8.1255363908216394e-01  9.5606637153270391e-01  1.0879299596579786e+00  1.2075165244335988e+00  1.3163327031124099e+00  1.4183325300580745e+00  1.5199006127444816e+00  1.6296789888554750e+00  1.7591244794012684e+00  1.8970508502603438e+00  1.9677408152708697e+00  1.9646221669165820e+00  1.8858314579004820e+00  1.7471791003048269e+00  1.6246475248458154e+00  1.5205469227691428e+00  1.4269343033733835e+00  1.3404755736847240e+00  1.2497428463262727e+00  1.1314854467977611e+00  9.9177028673707956e-01  8.4913114233393816e-01  7.0499627760153738e-01  5.6100952651109570e-01  4.1841741875966892e-01  2.7763113134569806e-01  1.3838431774146709e-01  0.0000000000000000e+00  0.0000000000000000e+00  1.7684567514856253e-01  3.5271643832718658e-01  5.2620234495502838e-01  6.9508095592189278e-01  8.5616437446272098e-01  1.0057091245919791e+00  1.1407405125977230e+00  1.2606634773595171e+00  1.3680838275505778e+00  1.4690397687892713e+00  1.5724369515780305e+00  1.6893388142758550e+00  1.8338985744111107e+00  1.9964307973202675e+00  2.0847086755124735e+00  2.0843811719008198e+00  1.9951528283898197e+00  1.8329379011028912e+00  1.6904554825976235e+00  1.5765522924577748e+00  1.4766277814131399e+00  1.3856641872661946e+00  1.3061347362771070e+00  1.1879370728826719e+00  1.0293499142744926e+00  8.7534002539556699e-01  7.2230545396089285e-01  5.7157564913137060e-01  4.2443933607796491e-01  2.8078445721863837e-01  1.3971568000998325e-01  0.0000000000000000e+00  0.0000000000000000e+00  1.8697296479870465e-01  3.7355121747024261e-01  5.5870012906213207e-01  7.4004425166602883e-01  9.1324311787135426e-01  1.0721321359096612e+00  1.2112458213429609e+00  1.3291961944199313e+00  1.4294464691743856e+00  1.5206673102484365e+00  1.6149726506720610e+00  1.7248868868672647e+00  1.8648091627314869e+00  2.0265947253714529e+00  2.1173507090379937e+00  2.1201148874264995e+00  2.0340049186015974e+00  1.8730905293755022e+00  1.7312435682796199e+00  1.6220940307382978e+00  1.5207387874866021e+00  1.4079078910724299e+00  1.3013531158102349e+00  1.1846759487195253e+00  1.0500717513678781e+00  9.0270835490734225e-01  7.3915155665903720e-01  5.8006495490880261e-01  4.2814332395317145e-01  2.8213998386625383e-01  1.4009219489201413e-01  0.0000000000000000e+00  0.0000000000000000e+00  1.9788551911404340e-01  3.9659092953075081e-01  5.9614753339850157e-01  7.9464734090207212e-01  9.8645780165278896e-01  1.1604758789761762e+00  1.3053714241503700e+00  1.4181870406063826e+00  1.5028748476597338e+00  1.5724797434115103e+00  1.6453285418792221e+00  1.7339121879670911e+00  1.8479139462505660e+00  1.9842644986471554e+00  2.0649876770540376e+00  2.0717160022259176e+00  2.0041109065185290e+00  1.8682002456671416e+00  1.7427877092376041e+00  1.6485631126143865e+00  1.5649146616819349e+00  1.4269666203410230e+00  1.2948713853979876e+00  1.1725741602076973e+00  1.0565146014741973e+00  9.3364162754820890e-01  7.5330658998661393e-01  5.8286573212496817e-01  4.2706748426967700e-01  2.8031378125704848e-01  1.3890495668588770e-01  0.0000000000000000e+00  0.0000000000000000e+00  2.0834280326240950e-01  4.1950128971981382e-01  6.3570899956146276e-01  8.5730536340097507e-01  1.0791168690064992e+00  1.2798766112754674e+00  1.4338059585554066e+00  1.5378423603868097e+00  1.5942295103293154e+00  1.6241637921749428e+00  1.6632634836581541e+00  1.7209302826981452e+00  1.7973803825567398e+00  1.8834135639494474e+00  1.9430138821189951e+00  1.9540196984084959e+00  1.9136272041908615e+00  1.8267630814073101e+00  1.7264896726688215e+00  1.6383644305721858e+00  1.5637629719452351e+00  1.4284658525546658e+00  1.2813743969069222e+00  1.1567643254441244e+00  1.0426508512301882e+00  9.2124045594327764e-01  7.4458483342520565e-01  5.7244600330712625e-01  4.1805101006081413e-01  2.7389568221792976e-01  1.3559599071144637e-01  0.0000000000000000e+00  0.0000000000000000e+00  2.1631652527605422e-01  4.3801527322020350e-01  6.7082290042406845e-01  9.2093538887846915e-01  1.1795503462185966e+00  1.4183712741714389e+00  1.5846609421694611e+00  1.6779906989299125e+00  1.6999131433998091e+00  1.6695765125271254e+00  1.6657838431546221e+00  1.6924702620439389e+00  1.7406136476846998e+00  1.7976246452635325e+00  1.8435201793220597e+00  1.8615698971777965e+00  1.8434661243735062e+00  1.7872926962512588e+00  1.7012725470086896e+00  1.6030985556754136e+00  1.5088588042238809e+00  1.4005551749611960e+00  1.2480694604592248e+00  1.1182220794186679e+00  1.0088844237208268e+00  8.6321154634102326e-01  7.0361424000800576e-01  5.4565007190403469e-01  3.9986058833494337e-01  2.6235027847093950e-01  1.2995346668697505e-01  0.0000000000000000e+00  0.0000000000000000e+00  2.1920466136240124e-01  4.4599673208087565e-01  6.8944121555697879e-01  9.6236296734063542e-01  1.2568464479187917e+00  1.4985433019839303e+00  1.6631668109023847e+00  1.7445573756732702e+00  1.7426279294691001e+00  1.6763836620631047e+00  1.6407715209380096e+00  1.6457051429511143e+00  1.6782253341675402e+00  1.7262041553167342e+00  1.7750839623082348e+00  1.8084327349142919e+00  1.8144899553497489e+00  1.7807568050987128e+00  1.6912685108159129e+00  1.5668860897936985e+00  1.4415153300909735e+00  1.3167864042358528e+00  1.1800047479969584e+00  1.0468421765589422e+00  9.2547462750520393e-01  7.9157731647032603e-01  6.4791357701713970e-01  5.0800167361419279e-01  3.7441811688179089e-01  2.4639251972828696e-01  1.2222395180498205e-01  0.0000000000000000e+00  0.0000000000000000e+00  2.1476836574138738e-01  4.3783009547577695e-01  6.7926966823500057e-01  9.5365810314065014e-01  1.2556598920776765e+00  1.4952532264685692e+00  1.6498877246387995e+00  1.7197441503919721e+00  1.7047448299836885e+00  1.6255410600155102e+00  1.5779309584695973e+00  1.5743092262493317e+00  1.6034492301012109e+00  1.6569702173699037e+00  1.7252149687177689e+00  1.7855392074297127e+00  1.8134893988115977e+00  1.8034202909491290e+00  1.7042655236189732e+00  1.5344357718984774e+00  1.3762379824500768e+00  1.2329834793497121e+00  1.0960931607474269e+00  9.6593386897366129e-01  8.4194911914662074e-01  7.1681900701663348e-01  5.9000233074787101e-01  4.6530148265250970e-01  3.4440265161605776e-01  2.2724804057157447e-01  1.1289027079136017e-01  0.0000000000000000e+00  0.0000000000000000e+00  2.0227376343098324e-01  4.1173276728673713e-01  6.3674850811186590e-01  8.8864271542815920e-01  1.1707593509108845e+00  1.4014981955672936e+00  1.5461424324106521e+00  1.6048533218529273e+00  1.5859173193196867e+00  1.5158536353539911e+00  1.4735928181435771e+00  1.4728833227258502e+00  1.5071322164796614e+00  1.5758466187840330e+00  1.6713283597608246e+00  1.7682690144027036e+00  1.8089523300067467e+00  1.7854665633320579e+00  1.6729278561807854e+00  1.4781575064907286e+00  1.2985163512414837e+00  1.1452550419541034e+00  1.0077728323954409e+00  8.8101017036892648e-01  7.6152254346835024e-01  6.4547083624197121e-01  5.3145455042911072e-01  4.2001593145164201e-01  3.1157661874150760e-01  2.0594029440830944e-01  1.0241071960270468e-01  0.0000000000000000e+00  0.0000000000000000e+00  1.8280768878770334e-01  3.7048614773993616e-01  5.6789903717739676e-01  7.7933883240381019e-01  1