<?xml version="1.0"?>
<VTKFile type="UnstructuredGrid"  version="0.1"  >
<UnstructuredGrid>
<Piece  NumberOfPoints="1089" NumberOfCells="2048">
<Points>
<DataArray  type="Float64"  NumberOfComponents="3"  format="ascii">0 0 0  0.03125 0 0  0.0625 0 0  0.09375 0 0  0.125 0 0  0.15625 0 0  0.1875 0 0  0.21875 0 0  0.25 0 0  0.28125 0 0  0.3125 0 0  0.34375 0 0  0.375 0 0  0.40625 0 0  0.4375 0 0  0.46875 0 0  0.5 0 0  0.53125 0 0  0.5625 0 0  0.59375 0 0  0.625 0 0  0.65625 0 0  0.6875 0 0  0.71875 0 0  0.75 0 0  0.78125 0 0  0.8125 0 0  0.84375 0 0  0.875 0 0  0.90625 0 0  0.9375 0 0  0.96875 0 0  1 0 0  0 0.03125 0  0.03125 0.03125 0  0.0625 0.03125 0  0.09375 0.03125 0  0.125 0.03125 0  0.15625 0.03125 0  0.1875 0.03125 0  0.21875 0.03125 0  0.25 0.03125 0  0.28125 0.03125 0  0.3125 0.03125 0  0.34375 0.03125 0  0.375 0.03125 0  0.40625 0.03125 0  0.4375 0.03125 0  0.46875 0.03125 0  0.5 0.03125 0  0.53125 0.03125 0  0.5625 0.03125 0  0.59375 0.03125 0  0.625 0.03125 0  0.65625 0.03125 0  0.6875 0.03125 0  0.71875 0.03125 0  0.75 0.03125 0  0.78125 0.03125 0  0.8125 0.03125 0  0.84375 0.03125 0  0.875 0.03125 0  0.90625 0.03125 0  0.9375 0.03125 0  0.96875 0.03125 0  1 0.03125 0  0 0.0625 0  0.03125 0.0625 0  0.0625 0.0625 0  0.09375 0.0625 0  0.125 0.0625 0  0.15625 0.0625 0  0.1875 0.0625 0  0.21875 0.0625 0  0.25 0.0625 0  0.28125 0.0625 0  0.3125 0.0625 0  0.34375 0.0625 0  0.375 0.0625 0  0.40625 0.0625 0  0.4375 0.0625 0  0.46875 0.0625 0  0.5 0.0625 0  0.53125 0.0625 0  0.5625 0.0625 0  0.59375 0.0625 0  0.625 0.0625 0  0.65625 0.0625 0  0.6875 0.0625 0  0.71875 0.0625 0  0.75 0.0625 0  0.78125 0.0625 0  0.8125 0.0625 0  0.84375 0.0625 0  0.875 0.0625 0  0.90625 0.0625 0  0.9375 0.0625 0  0.96875 0.0625 0  1 0.0625 0  0 0.09375 0  0.03125 0.09375 0  0.0625 0.09375 0  0.09375 0.09375 0  0.125 0.09375 0  0.15625 0.09375 0  0.1875 0.09375 0  0.21875 0.09375 0  0.25 0.09375 0  0.28125 0.09375 0  0.3125 0.09375 0  0.34375 0.09375 0  0.375 0.09375 0  0.40625 0.09375 0  0.4375 0.09375 0  0.46875 0.09375 0  0.5 0.09375 0  0.53125 0.09375 0  0.5625 0.09375 0  0.59375 0.09375 0  0.625 0.09375 0  0.65625 0.09375 0  0.6875 0.09375 0  0.71875 0.09375 0  0.75 0.09375 0  0.78125 0.09375 0  0.8125 0.09375 0  0.84375 0.09375 0  0.875 0.09375 0  0.90625 0.09375 0  0.9375 0.09375 0  0.96875 0.09375 0  1 0.09375 0  0 0.125 0  0.03125 0.125 0  0.0625 0.125 0  0.09375 0.125 0  0.125 0.125 0  0.15625 0.125 0  0.1875 0.125 0  0.21875 0.125 0  0.25 0.125 0  0.28125 0.125 0  0.3125 0.125 0  0.34375 0.125 0  0.375 0.125 0  0.40625 0.125 0  0.4375 0.125 0  0.46875 0.125 0  0.5 0.125 0  0.53125 0.125 0  0.5625 0.125 0  0.59375 0.125 0  0.625 0.125 0  0.65625 0.125 0  0.6875 0.125 0  0.71875 0.125 0  0.75 0.125 0  0.78125 0.125 0  0.8125 0.125 0  0.84375 0.125 0  0.875 0.125 0  0.90625 0.125 0  0.9375 0.125 0  0.96875 0.125 0  1 0.125 0  0 0.15625 0  0.03125 0.15625 0  0.0625 0.15625 0  0.09375 0.15625 0  0.125 0.15625 0  0.15625 0.15625 0  0.1875 0.15625 0  0.21875 0.15625 0  0.25 0.15625 0  0.28125 0.15625 0  0.3125 0.15625 0  0.34375 0.15625 0  0.375 0.15625 0  0.40625 0.15625 0  0.4375 0.15625 0  0.46875 0.15625 0  0.5 0.15625 0  0.53125 0.15625 0  0.5625 0.15625 0  0.59375 0.15625 0  0.625 0.15625 0  0.65625 0.15625 0  0.6875 0.15625 0  0.71875 0.15625 0  0.75 0.15625 0  0.78125 0.15625 0  0.8125 0.15625 0  0.84375 0.15625 0  0.875 0.15625 0  0.90625 0.15625 0  0.9375 0.15625 0  0.96875 0.15625 0  1 0.15625 0  0 0.1875 0  0.03125 0.1875 0  0.0625 0.1875 0  0.09375 0.1875 0  0.125 0.1875 0  0.15625 0.1875 0  0.1875 0.1875 0  0.21875 0.1875 0  0.25 0.1875 0  0.28125 0.1875 0  0.3125 0.1875 0  0.34375 0.1875 0  0.375 0.1875 0  0.40625 0.1875 0  0.4375 0.1875 0  0.46875 0.1875 0  0.5 0.1875 0  0.53125 0.1875 0  0.5625 0.1875 0  0.59375 0.1875 0  0.625 0.1875 0  0.65625 0.1875 0  0.6875 0.1875 0  0.71875 0.1875 0  0.75 0.1875 0  0.78125 0.1875 0  0.8125 0.1875 0  0.84375 0.1875 0  0.875 0.1875 0  0.90625 0.1875 0  0.9375 0.1875 0  0.96875 0.1875 0  1 0.1875 0  0 0.21875 0  0.03125 0.21875 0  0.0625 0.21875 0  0.09375 0.21875 0  0.125 0.21875 0  0.15625 0.21875 0  0.1875 0.21875 0  0.21875 0.21875 0  0.25 0.21875 0  0.28125 0.21875 0  0.3125 0.21875 0  0.34375 0.21875 0  0.375 0.21875 0  0.40625 0.21875 0  0.4375 0.21875 0  0.46875 0.21875 0  0.5 0.21875 0  0.53125 0.21875 0  0.5625 0.21875 0  0.59375 0.21875 0  0.625 0.21875 0  0.65625 0.21875 0  0.6875 0.21875 0  0.71875 0.21875 0  0.75 0.21875 0  0.78125 0.21875 0  0.8125 0.21875 0  0.84375 0.21875 0  0.875 0.21875 0  0.90625 0.21875 0  0.9375 0.21875 0  0.96875 0.21875 0  1 0.21875 0  0 0.25 0  0.03125 0.25 0  0.0625 0.25 0  0.09375 0.25 0  0.125 0.25 0  0.15625 0.25 0  0.1875 0.25 0  0.21875 0.25 0  0.25 0.25 0  0.28125 0.25 0  0.3125 0.25 0  0.34375 0.25 0  0.375 0.25 0  0.40625 0.25 0  0.4375 0.25 0  0.46875 0.25 0  0.5 0.25 0  0.53125 0.25 0  0.5625 0.25 0  0.59375 0.25 0  0.625 0.25 0  0.65625 0.25 0  0.6875 0.25 0  0.71875 0.25 0  0.75 0.25 0  0.78125 0.25 0  0.8125 0.25 0  0.84375 0.25 0  0.875 0.25 0  0.90625 0.25 0  0.9375 0.25 0  0.96875 0.25 0  1 0.25 0  0 0.28125 0  0.03125 0.28125 0  0.0625 0.28125 0  0.09375 0.28125 0  0.125 0.28125 0  0.15625 0.28125 0  0.1875 0.28125 0  0.21875 0.28125 0  0.25 0.28125 0  0.28125 0.28125 0  0.3125 0.28125 0  0.34375 0.28125 0  0.375 0.28125 0  0.40625 0.28125 0  0.4375 0.28125 0  0.46875 0.28125 0  0.5 0.28125 0  0.53125 0.28125 0  0.5625 0.28125 0  0.59375 0.28125 0  0.625 0.28125 0  0.65625 0.28125 0  0.6875 0.28125 0  0.71875 0.28125 0  0.75 0.28125 0  0.78125 0.28125 0  0.8125 0.28125 0  0.84375 0.28125 0  0.875 0.28125 0  0.90625 0.28125 0  0.9375 0.28125 0  0.96875 0.28125 0  1 0.28125 0  0 0.3125 0  0.03125 0.3125 0  0.0625 0.3125 0  0.09375 0.3125 0  0.125 0.3125 0  0.15625 0.3125 0  0.1875 0.3125 0  0.21875 0.3125 0  0.25 0.3125 0  0.28125 0.3125 0  0.3125 0.3125 0  0.34375 0.3125 0  0.375 0.3125 0  0.40625 0.3125 0  0.4375 0.3125 0  0.46875 0.3125 0  0.5 0.3125 0  0.53125 0.3125 0  0.5625 0.3125 0  0.59375 0.3125 0  0.625 0.3125 0  0.65625 0.3125 0  0.6875 0.3125 0  0.71875 0.3125 0  0.75 0.3125 0  0.78125 0.3125 0  0.8125 0.3125 0  0.84375 0.3125 0  0.875 0.3125 0  0.90625 0.3125 0  0.9375 0.3125 0  0.96875 0.3125 0  1 0.3125 0  0 0.34375 0  0.03125 0.34375 0  0.0625 0.34375 0  0.09375 0.34375 0  0.125 0.34375 0  0.15625 0.34375 0  0.1875 0.34375 0  0.21875 0.34375 0  0.25 0.34375 0  0.28125 0.34375 0  0.3125 0.34375 0  0.34375 0.34375 0  0.375 0.34375 0  0.40625 0.34375 0  0.4375 0.34375 0  0.46875 0.34375 0  0.5 0.34375 0  0.53125 0.34375 0  0.5625 0.34375 0  0.59375 0.34375 0  0.625 0.34375 0  0.65625 0.34375 0  0.6875 0.34375 0  0.71875 0.34375 0  0.75 0.34375 0  0.78125 0.34375 0  0.8125 0.34375 0  0.84375 0.34375 0  0.875 0.34375 0  0.90625 0.34375 0  0.9375 0.34375 0  0.96875 0.34375 0  1 0.34375 0  0 0.375 0  0.03125 0.375 0  0.0625 0.375 0  0.09375 0.375 0  0.125 0.375 0  0.15625 0.375 0  0.1875 0.375 0  0.21875 0.375 0  0.25 0.375 0  0.28125 0.375 0  0.3125 0.375 0  0.34375 0.375 0  0.375 0.375 0  0.40625 0.375 0  0.4375 0.375 0  0.46875 0.375 0  0.5 0.375 0  0.53125 0.375 0  0.5625 0.375 0  0.59375 0.375 0  0.625 0.375 0  0.65625 0.375 0  0.6875 0.375 0  0.71875 0.375 0  0.75 0.375 0  0.78125 0.375 0  0.8125 0.375 0  0.84375 0.375 0  0.875 0.375 0  0.90625 0.375 0  0.9375 0.375 0  0.96875 0.375 0  1 0.375 0  0 0.40625 0  0.03125 0.40625 0  0.0625 0.40625 0  0.09375 0.40625 0  0.125 0.40625 0  0.15625 0.40625 0  0.1875 0.40625 0  0.21875 0.40625 0  0.25 0.40625 0  0.28125 0.40625 0  0.3125 0.40625 0  0.34375 0.40625 0  0.375 0.40625 0  0.40625 0.40625 0  0.4375 0.40625 0  0.46875 0.40625 0  0.5 0.40625 0  0.53125 0.40625 0  0.5625 0.40625 0  0.59375 0.40625 0  0.625 0.40625 0  0.65625 0.40625 0  0.6875 0.40625 0  0.71875 0.40625 0  0.75 0.40625 0  0.78125 0.40625 0  0.8125 0.40625 0  0.84375 0.40625 0  0.875 0.40625 0  0.90625 0.40625 0  0.9375 0.40625 0  0.96875 0.40625 0  1 0.40625 0  0 0.4375 0  0.03125 0.4375 0  0.0625 0.4375 0  0.09375 0.4375 0  0.125 0.4375 0  0.15625 0.4375 0  0.1875 0.4375 0  0.21875 0.4375 0  0.25 0.4375 0  0.28125 0.4375 0  0.3125 0.4375 0  0.34375 0.4375 0  0.375 0.4375 0  0.40625 0.4375 0  0.4375 0.4375 0  0.46875 0.4375 0  0.5 0.4375 0  0.53125 0.4375 0  0.5625 0.4375 0  0.59375 0.4375 0  0.625 0.4375 0  0.65625 0.4375 0  0.6875 0.4375 0  0.71875 0.4375 0  0.75 0.4375 0  0.78125 0.4375 0  0.8125 0.4375 0  0.84375 0.4375 0  0.875 0.4375 0  0.90625 0.4375 0  0.9375 0.4375 0  0.96875 0.4375 0  1 0.4375 0  0 0.46875 0  0.03125 0.46875 0  0.0625 0.46875 0  0.09375 0.46875 0  0.125 0.46875 0  0.15625 0.46875 0  0.1875 0.46875 0  0.21875 0.46875 0  0.25 0.46875 0  0.28125 0.46875 0  0.3125 0.46875 0  0.34375 0.46875 0  0.375 0.46875 0  0.40625 0.46875 0  0.4375 0.46875 0  0.46875 0.46875 0  0.5 0.46875 0  0.53125 0.46875 0  0.5625 0.46875 0  0.59375 0.46875 0  0.625 0.46875 0  0.65625 0.46875 0  0.6875 0.46875 0  0.71875 0.46875 0  0.75 0.46875 0  0.78125 0.46875 0  0.8125 0.46875 0  0.84375 0.46875 0  0.875 0.46875 0  0.90625 0.46875 0  0.9375 0.46875 0  0.96875 0.46875 0  1 0.46875 0  0 0.5 0  0.03125 0.5 0  0.0625 0.5 0  0.09375 0.5 0  0.125 0.5 0  0.15625 0.5 0  0.1875 0.5 0  0.21875 0.5 0  0.25 0.5 0  0.28125 0.5 0  0.3125 0.5 0  0.34375 0.5 0  0.375 0.5 0  0.40625 0.5 0  0.4375 0.5 0  0.46875 0.5 0  0.5 0.5 0  0.53125 0.5 0  0.5625 0.5 0  0.59375 0.5 0  0.625 0.5 0  0.65625 0.5 0  0.6875 0.5 0  0.71875 0.5 0  0.75 0.5 0  0.78125 0.5 0  0.8125 0.5 0  0.84375 0.5 0  0.875 0.5 0  0.90625 0.5 0  0.9375 0.5 0  0.96875 0.5 0  1 0.5 0  0 0.53125 0  0.03125 0.53125 0  0.0625 0.53125 0  0.09375 0.53125 0  0.125 0.53125 0  0.15625 0.53125 0  0.1875 0.53125 0  0.21875 0.53125 0  0.25 0.53125 0  0.28125 0.53125 0  0.3125 0.53125 0  0.34375 0.53125 0  0.375 0.53125 0  0.40625 0.53125 0  0.4375 0.53125 0  0.46875 0.53125 0  0.5 0.53125 0  0.53125 0.53125 0  0.5625 0.53125 0  0.59375 0.53125 0  0.625 0.53125 0  0.65625 0.53125 0  0.6875 0.53125 0  0.71875 0.53125 0  0.75 0.53125 0  0.78125 0.531
[...]
<PointData  Scalars="u"> 
<DataArray  type="Float64"  Name="u"  format="ascii">0.0000000000000000e+00  0.0000000000000000e+00  0.0000000000000000e+00  0.0000000000000000e+00  0.0000000000000000e+00  0.0000000000000000e+00  0.0000000000000000e+00  0.0000000000000000e+00  0.0000000000000000e+00  0.0000000000000000e+00  0.0000000000000000e+00  0.0000000000000000e+00  0.0000000000000000e+00  0.0000000000000000e+00  0.0000000000000000e+00  0.0000000000000000e+00  0.0000000000000000e+00  0.0000000000000000e+00  0.0000000000000000e+00  0.0000000000000000e+00  0.0000000000000000e+00  0.0000000000000000e+00  0.0000000000000000e+00  0.0000000000000000e+00  0.0000000000000000e+00  0.0000000000000000e+00  0.0000000000000000e+00  0.0000000000000000e+00  0.0000000000000000e+00  0.0000000000000000e+00  0.0000000000000000e+00  0.0000000000000000e+00  0.0000000000000000e+00  0.0000000000000000e+00  1.2246419528504008e-02  2.4428616046754593e-02  3.6459127623458661e-02  4.8200570761832942e-02  5.9450459862304933e-02  6.9942107382663224e-02  7.9370505671615882e-02  8.7445736157380258e-02  9.3965782485173163e-02  9.8895883218293304e-02  1.0241574738509616e-01  1.0487175068541206e-01  1.0665994249861843e-01  1.0813064748696510e-01  1.0954103074048885e-01  1.1103822738391032e-01  1.1264915223542386e-01  1.1426294640605968e-01  1.1560657197538196e-01  1.1623068668626164e-01  1.1553716482611331e-01  1.1287737435561304e-01  1.0772292276120041e-01  9.9898197702349784e-02  8.9741099969010057e-02  7.7944790935670388e-02  6.5222705162471140e-02  5.2113710322642212e-02  3.8942880919510668e-02  2.5859230739607809e-02  1.2891894296057443e-02  0.0000000000000000e+00  0.0000000000000000e+00  2.4528131068741420e-02  4.8955779027193412e-02  7.3130963822594541e-02  9.6794385707497405e-02  1.1954031620884298e-01  1.4080947274996292e-01  1.5993825932430644e-01  1.7627378791787413e-01  1.8933250502661758e-01  1.9899774532203471e-01  2.0567713466800483e-01  2.1018103790224490e-01  2.1339757667484544e-01  2.1607533474918100e-01  2.1874586336325222e-01  2.2171384560656243e-01  2.2505076441472305e-01  2.2855924280800599e-01  2.3170701444369013e-01  2.3356721926550966e-01  2.3284432851474471e-01  2.2806913149134309e-01  2.1795125525731751e-01  2.0197838949470368e-01  1.8098519051784739e-01  1.5669405680098208e-01  1.3072758874259588e-01  1.0420315079146730e-01  7.7733105418189119e-02  5.1558932414084817e-02  2.5688482286306536e-02  0.0000000000000000e+00  0.0000000000000000e+00  3.6857138509912728e-02  7.3634194857467999e-02  1.1016733307401616e-01  1.4611507382146866e-01  1.8087587658626977e-01  2.1354853351925093e-01  2.4299538838058715e-01  2.6804130843999224e-01  2.8772310212460711e-01  3.0168482567659710e-01  3.1068450149646515e-01  3.1632297043153224e-01  3.2019918256919627e-01  3.2353858466426716e-01  3.2715769821611546e-01  3.3152556870969313e-01  3.3679416828533532e-01  3.4274558880067263e-01  3.4864747562889287e-01  3.5306817845417943e-01  3.5381755605788739e-01  3.4825043125138683e-01  3.3371245142435674e-01  3.0878460719555378e-01  2.7525915840793908e-01  2.3687822237781209e-01  1.9658123867583649e-01  1.5606476384766182e-01  1.1609418093623637e-01  7.6865367478025054e-02  3.8259706878383232e-02  0.0000000000000000e+00  0.0000000000000000e+00  4.9189707824962528e-02  9.8409144680945193e-02  1.4757409068630889e-01  1.9634436503728794e-01  2.4396270449718413e-01  2.8912248141228347e-01  3.3001200905614364e-01  3.6468303130287505e-01  3.9129594984668248e-01  4.0874850406916191e-01  4.1842214604534600e-01  4.2355607979793275e-01  4.2683447419361575e-01  4.2999692787260035e-01  4.3408463250055113e-01  4.3970134434872343e-01  4.4713284395111541e-01  4.5628540586756211e-01  4.6641076456834341e-01  4.7562952531099928e-01  4.8054953426644631e-01  4.7689821422506762e-01  4.5940639498361829e-01  4.2376951808105684e-01  3.7400309959503769e-01  3.1862862853813800e-01  2.6234702779496361e-01  2.0712372870802576e-01  1.5351489038771354e-01  1.0141420219214507e-01  5.0418678933390797e-02  0.0000000000000000e+00  0.0000000000000000e+00  6.1393908443119739e-02  1.2304760562527602e-01  1.8509706784678512e-01  2.4736622904027439e-01  3.0907514145338078e-01  3.6846680863362080e-01  4.2268502870939623e-01  4.6876026310833657e-01  5.0334416353770528e-01  5.2284005480147411e-01  5.2988274445360872e-01  5.3176944509094770e-01  5.3266397991251901e-01  5.3457659406847802e-01  5.3851356076627632e-01  5.4509483647427293e-01  5.5480245521048377e-01  5.6794264831269525e-01  5.8422754077220274e-01  6.0170867768881897e-01  6.1515326513980007e-01  6.1876777517448156e-01  6.0269249828932847e-01  5.5237323086982315e-01  4.7787442175663181e-01  4.0084093560919248e-01  3.2665757208429363e-01  2.5623344570246154e-01  1.8916680646568060e-01  1.2468043665904083e-01  6.1912484153203079e-02  0.0000000000000000e+00  0.0000000000000000e+00  7.3218910632599513e-02  1.4705868321776053e-01  2.2206362364090065e-01  2.9851638162176664e-01  3.7598887143911436e-01  4.5239460222420735e-01  5.2284327629026928e-01  5.8360458399375370e-01  6.2968208088866939e-01  6.4849794895650048e-01  6.4551866629902765e-01  6.3991122264502986e-01  6.3634706467534607e-01  6.3596027574384428e-01  6.3910553059097375e-01  6.4617146116710256e-01  6.5787575414037480e-01  6.7534506489259916e-01  6.9981992942235127e-01  7.3090309860866531e-01  7.5878599361353383e-01  7.7011338691216069e-01  7.6056847803562666e-01  6.9507075088769488e-01  5.8373364391012617e-01  4.7967811140253358e-01  3.8673115711374817e-01  3.0157817791353497e-01  2.2191911238449361e-01  1.4600985792922605e-01  7.2441441358708308e-02  0.0000000000000000e+00  0.0000000000000000e+00  8.4284102991688065e-02  1.6963512581743267e-01  2.5719250130520560e-01  3.4815137610056462e-01  4.4338635990463299e-01  5.4162437735978586e-01  6.3196786771349767e-01  7.0281422902707991e-01  7.6335315566055839e-01  7.8543889952234658e-01  7.6266574469971793e-01  7.4477494221718421e-01  7.3553058481703903e-01  7.3243278602931661e-01  7.3437031317670520e-01  7.4120555114421294e-01  7.5381416925993694e-01  7.7444325671238190e-01  8.0761883505338394e-01  8.5273402894595351e-01  8.9904848701786955e-01  9.1303106844208826e-01  8.8802292563849172e-01  8.0679458870415555e-01  6.7219083384109635e-01  5.4681301035108831e-01  4.3845797581912338e-01  3.4095246719604083e-01  2.5054617919781863e-01  1.6474083596235162e-01  8.1713880675657755e-02  0.0000000000000000e+00  0.0000000000000000e+00  9.4124680892922058e-02  1.8969971353984544e-01  2.8848036472030719e-01  3.9295863974142137e-01  5.0714569757887507e-01  6.2852290520046150e-01  7.4077375315223859e-01  8.1244148599319665e-01  8.5831217593785958e-01  8.8993980289160668e-01  8.6416850485400687e-01  8.3960066459566285e-01  8.2706255258204509e-01  8.2229358877979430e-01  8.2312671784202951e-01  8.2885705484556638e-01  8.4016265549476032e-01  8.5951136075049639e-01  8.9260603318624421e-01  9.4362742856701276e-01  9.8493181958800147e-01  9.9888363918930678e-01  9.6623243445017060e-01  8.7598384610475710e-01  7.3171492715684872e-01  5.9625805557311962e-01  4.7870624309900478e-01  3.7268263381330308e-01  2.7414211661910259e-01  1.8039786362506310e-01  8.9524272656603551e-02  0.0000000000000000e+00  0.0000000000000000e+00  1.0233856595781068e-01  2.0621715727272238e-01  3.1358094444064000e-01  4.2744844477755239e-01  5.5349760433561890e-01  6.9522418777284112e-01  8.1312726292417004e-01  8.8026470700040771e-01  9.2839232805711214e-01  9.6491182995261804e-01  9.4405142570132705e-01  9.2085043904788022e-01  9.0914443828376756e-01  9.0478794099494375e-01  9.0518095755588002e-01  9.0912739991149571e-01  9.1670249772258339e-01  9.2915702209452666e-01  9.4860944268900671e-01  9.7620318824123720e-01  1.0017762756767847e+00  1.0160956833818169e+00  9.8693128495830218e-01  9.0318039949179352e-01  7.6262229768386913e-01  6.2703828686944829e-01  5.0671363080269116e-01  3.9631445724156161e-01  2.9245712566970550e-01  1.9285158071663608e-01  9.5817557327924185e-02  0.0000000000000000e+00  0.0000000000000000e+00  1.0881695942843933e-01  2.1887010273795079e-01  3.3163278317514189e-01  4.4907703636050184e-01  5.7387488863252767e-01  7.0868946923175835e-01  8.4006928380570400e-01  9.2799398461439686e-01  9.8036418718919849e-01  1.0197270276610306e+00  1.0057098440464469e+00  9.8889801606988514e-01  9.8202438554581428e-01  9.8059018316145530e-01  9.8169424320108301e-01  9.8377728798124964e-01  9.8640735483056186e-01  9.8992987867295978e-01  9.9472889170499545e-01  9.9971215048651241e-01  9.9994537326312627e-01  9.8989271851002048e-01  9.5642085339368521e-01  8.9099246613149419e-01  7.6860864020838560e-01  6.4168471076699107e-01  5.2399034246722731e-01  4.1271634419501141e-01  3.0598140719197164e-01  2.0236497912718876e-01  1.0070843603268549e-01  0.0000000000000000e+00  0.0000000000000000e+00  1.1384414638583672e-01  2.2839458135087504e-01  3.4439684648264296e-01  4.6258567367270464e-01  5.8334902192775051e-01  7.0556687104835836e-01  8.2366031745932988e-01  9.2436368101671074e-01  1.0059400983822144e+00  1.0502198577887623e+00  1.0494314838192791e+00  1.0451350590398942e+00  1.0474476002646473e+00  1.0517463767265958e+00  1.0550745936755994e+00  1.0557189964811127e+00  1.0530888232535953e+00  1.0473642273490062e+00  1.0387118967791740e+00  1.0261692512329044e+00  1.0067801614927880e+00  9.7615360460527367e-01  9.2802785699093882e-01  8.5838852062296556e-01  7.5901020898038762e-01  6.4609658827486127e-01  5.3394354757903872e-01  4.2381772125713435e-01  3.1579532551185441e-01  2.0951513288775991e-01  1.0444806407929463e-01  0.0000000000000000e+00  0.0000000000000000e+00  1.1793080786548445e-01  2.3600875491915119e-01  3.5430577386702355e-01  4.7266284129387376e-01  5.9035231736595672e-01  7.0542612446039965e-01  8.1386459463458882e-01  9.0991305362664643e-01  9.9107829974079853e-01  1.0478831216626350e+00  1.0757499489434446e+00  1.0927271246873400e+00  1.1087147905137882e+00  1.1216195564603597e+00  1.1288416291207619e+00  1.1286293633471325e+00  1.1205828404554079e+00  1.1055017810783023e+00  1.0844522022134373e+00  1.0574640583193373e+00  1.0229946641989034e+00  9.7822329933459107e-01  9.1962633746281719e-01  8.4462195004800300e-01  7.5216428887506970e-01  6.4860955135144549e-01  5.4087034277420110e-01  4.3198435699893967e-01  3.2322581184129812e-01  2.1501696176527363e-01  1.0734976829255313e-01  0.0000000000000000e+00  0.0000000000000000e+00  1.2161831603899019e-01  2.4290854148976476e-01  3.6342785336104144e-01  4.8246671515277273e-01  5.9883819270051997e-01  7.1061902952989797e-01  8.1500872126403645e-01  9.0875810629983222e-01  9.8932347099818796e-01  1.0535515797793653e+00  1.1013895250929078e+00  1.1391188193268238e+00  1.1707642853394682e+00  1.1948051893642591e+00  1.2076360106611341e+00  1.2069580480316378e+00  1.1927129906818341e+00  1.1672551800926498e+00  1.1338545276036809e+00  1.0940698769707953e+00  1.0474734259136649e+00  9.9223224154060163e-01  9.2590630088378745e-01  8.4674313721631433e-01  7.5500402399375022e-01  6.5405148078992204e-01  5.4785994580260244e-01  4.3913077636454051e-01  3.2942215021282772e-01  2.1951416218296588e-01  1.0970135642829264e-01  0.0000000000000000e+00  0.0000000000000000e+00  1.2536661841094326e-01  2.5005215594140012e-01  3.7325364157789537e-01  4.9392614770403886e-01  6.1068573418042449e-01  7.2177641131108849e-01  8.2518723722913367e-01  9.1901736556705749e-01  1.0019846630791962e+00  1.0735452800244423e+00  1.1349366002784995e+00  1.1892787016684132e+00  1.2380226586095220e+00  1.2767569714660640e+00  1.2974696956006859e+00  1.2963758142207773e+00  1.2735863522931878e+00  1.2345130086278866e+00  1.1872628537692451e+00  1.1352014244530111e+00  1.0784317875762204e+00  1.0153047038357441e+00  9.4316113459031992e-01  8.5974484893941017e-01  7.6553370246228103e-01  6.6338892756069379e-01  5.5623693809512764e-01  4.4631488076226700e-01  3.3509861010366954e-01  2.2343073040939451e-01  1.1169757297063927e-01  0.0000000000000000e+00  0.0000000000000000e+00  1.2951680855597167e-01  2.5812790505187422e-01  3.8479289929540700e-01  5.0823236158943041e-01  6.2690132422858735e-01  7.3909576776909514e-01  8.4322992952959497e-01  9.3824273177409445e-01  1.0239945605551783e+00  1.1015094405490313e+00  1.1732182329403991e+00  1.2426404983582457e+00  1.3128512913903336e+00  1.3742742236187944e+00  1.4066454299849305e+00  1.4050155441042407e+00  1.3682617174461453e+00  1.3074730973342339e+00  1.2430477566034184e+00  1.1786840506402345e+00  1.1135033865828567e+00  1.0452909281610607e+00  9.6974637505281491e-01  8.8177032093046870e-01  7.8240595556547532e-01  6.7633380524202413e-01  5.6618903328448378e-01  4.5381720421575511e-01  3.4048257577448443e-01  2.2691079888035398e-01  1.1340598789469840e-01  0.0000000000000000e+00  0.0000000000000000e+00  1.3428575488448630e-01  2.6758146369537550e-01  3.9871678862853827e-01  5.2620778651514510e-01  6.4824463607913874e-01  7.6289988331081304e-01  8.6860809040261722e-01  9.6475315596777067e-01  1.0520990887436314e+00  1.1329999437479619e+00  1.2114066595643946e+00  1.2927834902865176e+00  1.3845104507898900e+00  1.4793873605018983e+00  1.5283855111339397e+00  1.5273325256533696e+00  1.4750190792771947e+00  1.3816138341341329e+00  1.2963241074804275e+00  1.2205977930216729e+00  1.1493284999641875e+00  1.0804755107383988e+00  1.0067946305623168e+00  9.1338717311779594e-01  8.0436791335094404e-01  6.9192583532923280e-01  5.7715067384943297e-01  4.6128774338010525e-01  3.4534532416363234e-01  2.2981237435242696e-01  1.1475821615508373e-01  0.0000000000000000e+00  0.0000000000000000e+00  1.3975483272779746e-01  2.7862057489955561e-01  4.1543417473211486e-01  5.4852268300806140e-01  6.7560534386615501e-01  7.9405303065504262e-01  9.0173490553716507e-01  9.9805203795804731e-01  1.0844674883145453e+00  1.1646670430447992e+00  1.2442176705390187e+00  1.3301432146606145e+00  1.4315748855165702e+00  1.5423069452822220e+00  1.6026310117631322e+00  1.6033587321079261e+00  1.5443119965368901e+00  1.4357165427054297e+00  1.3376158255730790e+00  1.2556767495114103e+00  1.1804634910903591e+00  1.1088357435932747e+00  1.0425634910808721e+00  9.4931141489435245e-01  8.2814684398033944e-01  7.0842938562820901e-01  5.8798185748110876e-01  4.6784016414412738e-01  3.4903657519868025e-01  2.3172047202151316e-01  1.1555516046114170e-01  0.0000000000000000e+00  0.0000000000000000e+00  1.4582553590574290e-01  2.9114164105089141e-01  4.3503364006291140e-01  5.7574051467290122e-01  7.1025228830269815e-01  8.3439126537971642e-01  9.4442787934081163e-01  1.0392532507343799e+00  1.1208757169211758e+00  1.1946659466145166e+00  1.2682472625505923e+00  1.3495736314945133e+00  1.4479269961207599e+00  1.5581006526594048e+00  1.6199648535608751e+00  1.6226560935634002e+00  1.5656343725992108e+00  1.4579418596776341e+00  1.3603715939519809e+00  1.2816895683809366e+00  1.2057718520828427e+00  1.1202190067487185e+00  1.0366888434230683e+00  9.4470374303653459e-01  8.3938531761342949e-01  7.2427328739576757e-01  5.9730912655355362e-01  4.7206858301286653e-01  3.5048460691037397e-01  2.3196611674511758e-01  1.1548362274508298e-01  0.0000000000000000e+00  0.0000000000000000e+00  1.5212649111267978e-01  3.0453360811159436e-01  4.5700321295024404e-01  6.0809194023249957e-01  7.5397868146213154e-01  8.8731716706823893e-01  1.0006031479913633e+00  1.0917229633872603e+00  1.1629934588185733e+00  1.2225955858646336e+00  1.2821511845107516e+00  1.3495691081298622e+00  1.4310549469636833e+00  1.5246793620599268e+00  1.5799823665069133e+00  1.5851933955989850e+00  1.5401498802109224e+00  1.4487105359305663e+00  1.3619179528321590e+00  1.2931292361654740e+00  1.2290051620894926e+00  1.1275275194744590e+00  1.0278531817475551e+00  9.3266880874972780e-01  8.3984144361632251e-01  7.4110336238865571e-01  6.0375443552874508e-01  4.7167917868347292e-01  3.4812622872803589e-01  2.2967243254348607e-01  1.1415849404672473e-01  0.0000000000000000e+00  0.0000000000000000e+00  1.5788173800808061e-01  3.1733960129377647e-01  4.7958864305282040e-01  6.4466013304736425e-01  8.0906594855991343e-01  9.5891106241289015e-01  1.0773560709151582e+00  1.1622414797575489e+00  1.2147686460581320e+00  1.2483759668715406e+00  1.2858658455640284e+00  1.3331121943712139e+00  1.3901583594956284e+00  1.4510706724192746e+00  1.4926066049463353e+00  1.5005280237588134e+00  1.4731007711689685e+00  1.4135230835573227e+00  1.3431916592774242e+00  1.2786393666623317e+00  1.2207821811993549e+00  1.1215179889675877e+00  1.0126783625310807e+00  9.1660628281655288e-01  8.2568009012355637e-01  7.2855513950498318e-01  5.9429037039594346e-01  4.6183986956877676e-01  3.3994847083954455e-01  2.2394779242306065e-01  1.1122883153910984e-01  0.0000000000000000e+00  0.0000000000000000e+00  1.6181475240905629e-01  3.2687189676466033e-01  4.9865772468300351e-01  6.8102172555652463e-01  8.6815871746442341e-01  1.0416657568639793e+00  1.1672456188532405e+00  1.2444751419440470e+00  1.2741048040382568e+00  1.2682102171539538e+00  1.2775847041546553e+00  1.3045174926072141e+00  1.3430373746693780e+00  1.3849921502039573e+00  1.4175268763597522e+00  1.4299300757693914e+00  1.4169279278809663e+00  1.3773340273605306e+00  1.3164752695670894e+00  1.2457900501832935e+00  1.1757067862026678e+00  1.0945899971253130e+00  9.8294839460650874e-01  8.8424391356155796e-01  7.9723384339755976e-01  6.8520226499400694e-01  5.6288838835895283e-01  4.4054653200125443e-01  3.2518233211520636e-01  2.1446481963781167e-01  1.0656697937995012e-01  0.0000000000000000e+00  0.0000000000000000e+00  1.6228089720627700e-01  3.2924032390677499e-01  5.0653865079567029e-01  7.0234422201219515e-01  9.1146393189338493e-01  1.0856417409437076e+00  1.2090930423468025e+00  1.2776915134644258e+00  1.2911244185973576e+00  1.2613563836121970e+00  1.2496281707005372e+00  1.2620808660983618e+00  1.2901696972335355e+00  1.3260278657461797e+00  1.3603134083930997e+00  1.3825206176783980e+00  1.3851721575438929e+00  1.3602653399381557e+00  1.2974716059934639e+00  1.2102870646339385e+00  1.1206582040924011e+00  1.0296370618937296e+00  9.2902894175474171e-01  8.2908366674345635e-01  7.3523482759982584e-01  6.3186455788876283e-01  5.2094277631268004e-01  4.1140575088744241e-01  3.0509414087937603e-01  2.0170153467273594e-01  1.0034035569175488e-01  0.0000000000000000e+00  0.0000000000000000e+00  1.5786514318574427e-01  3.2088028243703487e-01  4.9538117721072283e-01  6.9068341029930169e-01  9.0328888152689635e-01  1.0747971041283977e+00  1.1905775292339822e+00  1.2506327229401821e+00  1.2546598125218469e+00  1.2156917590120604e+00  1.1955157613965670e+00  1.2018708308490686e+00  1.2273227747955744e+00  1.2664247754815263e+00  1.3130145757994900e+00  1.3525748565587170e+00  1.3694273287031025e+00  1.3600621003198583e+00  1.2913899858065900e+00  1.1753085785290740e+00  1.0651393886640603e+00  9.6297010847745290e-01  8.6325234290252850e-01  7.6629817357023444e-01  6.7186492860643088e-01  5.7535721513352578e-01  4.7659002996173627e-01  3.7819462422097921e-01  2.8143615737345201e-01  1.8646459799441739e-01  9.2868573634117921e-02  0.0000000000000000e+00  0.0000000000000000e+00  1.4811398463241557e-01  3.0068164749017640e-01  4.6294806974452529e-01  6.4213280300740483e-01  8.4037414457320914e-01  1.0047421719511300e+00  1.1127213753232938e+00  1.1643145540470667e+00  1.1646589966968302e+00  1.1306148628399775e+00  1.1130421609809611e+00  1.1205688330504917e+00  1.1487625576585174e+00  1.1972855378630960e+00  1.2612450442471079e+00  1.3244145402416376e+00  1.3495506907469956e+00  1.3316982735245695e+00  1.2547804313708741e+00  1.1231584740407847e+00  9.9988903263316509e-01  8.9217229255951558e-01  7.9312347578067832e-01  6.9952444508363998e-01  6.0925076531087030e-01  5.1995283692952976e-01  4.3087749467491437e-01  3.4253681675837111e-01  2.5537159018482136e-01  1.6943248937908723e-01  8.4456632085397637e-02  0.0000000000000000e+00  0.0000000000000000e+00  1.3373800764500768e-01  2.7045760202113306e-01  4.1315368552202592e-01  5.6449794512035578e-01  7