<?xml version="1.0"?>
<VTKFile type="UnstructuredGrid"  version="0.1"  >
<UnstructuredGrid>
<Piece  NumberOfPoints="1089" NumberOfCells="2048">
<Points>
<DataArray  type="Float64"  NumberOfComponents="3"  format="ascii">0 0 0  0.03125 0 0  0.0625 0 0  0.09375 0 0  0.125 0 0  0.15625 0 0  0.1875 0 0  0.21875 0 0  0.25 0 0  0.28125 0 0  0.3125 0 0  0.34375 0 0  0.375 0 0  0.40625 0 0  0.4375 0 0  0.46875 0 0  0.5 0 0  0.53125 0 0  0.5625 0 0  0.59375 0 0  0.625 0 0  0.65625 0 0  0.6875 0 0  0.71875 0 0  0.75 0 0  0.78125 0 0  0.8125 0 0  0.84375 0 0  0.875 0 0  0.90625 0 0  0.9375 0 0  0.96875 0 0  1 0 0  0 0.03125 0  0.03125 0.03125 0  0.0625 0.03125 0  0.09375 0.03125 0  0.125 0.03125 0  0.15625 0.03125 0  0.1875 0.03125 0  0.21875 0.03125 0  0.25 0.03125 0  0.28125 0.03125 0  0.3125 0.03125 0  0.34375 0.03125 0  0.375 0.03125 0  0.40625 0.03125 0  0.4375 0.03125 0  0.46875 0.03125 0  0.5 0.03125 0  0.53125 0.03125 0  0.5625 0.03125 0  0.59375 0.03125 0  0.625 0.03125 0  0.65625 0.03125 0  0.6875 0.03125 0  0.71875 0.03125 0  0.75 0.03125 0  0.78125 0.03125 0  0.8125 0.03125 0  0.84375 0.03125 0  0.875 0.03125 0  0.90625 0.03125 0  0.9375 0.03125 0  0.96875 0.03125 0  1 0.03125 0  0 0.0625 0  0.03125 0.0625 0  0.0625 0.0625 0  0.09375 0.0625 0  0.125 0.0625 0  0.15625 0.0625 0  0.1875 0.0625 0  0.21875 0.0625 0  0.25 0.0625 0  0.28125 0.0625 0  0.3125 0.0625 0  0.34375 0.0625 0  0.375 0.0625 0  0.40625 0.0625 0  0.4375 0.0625 0  0.46875 0.0625 0  0.5 0.0625 0  0.53125 0.0625 0  0.5625 0.0625 0  0.59375 0.0625 0  0.625 0.0625 0  0.65625 0.0625 0  0.6875 0.0625 0  0.71875 0.0625 0  0.75 0.0625 0  0.78125 0.0625 0  0.8125 0.0625 0  0.84375 0.0625 0  0.875 0.0625 0  0.90625 0.0625 0  0.9375 0.0625 0  0.96875 0.0625 0  1 0.0625 0  0 0.09375 0  0.03125 0.09375 0  0.0625 0.09375 0  0.09375 0.09375 0  0.125 0.09375 0  0.15625 0.09375 0  0.1875 0.09375 0  0.21875 0.09375 0  0.25 0.09375 0  0.28125 0.09375 0  0.3125 0.09375 0  0.34375 0.09375 0  0.375 0.09375 0  0.40625 0.09375 0  0.4375 0.09375 0  0.46875 0.09375 0  0.5 0.09375 0  0.53125 0.09375 0  0.5625 0.09375 0  0.59375 0.09375 0  0.625 0.09375 0  0.65625 0.09375 0  0.6875 0.09375 0  0.71875 0.09375 0  0.75 0.09375 0  0.78125 0.09375 0  0.8125 0.09375 0  0.84375 0.09375 0  0.875 0.09375 0  0.90625 0.09375 0  0.9375 0.09375 0  0.96875 0.09375 0  1 0.09375 0  0 0.125 0  0.03125 0.125 0  0.0625 0.125 0  0.09375 0.125 0  0.125 0.125 0  0.15625 0.125 0  0.1875 0.125 0  0.21875 0.125 0  0.25 0.125 0  0.28125 0.125 0  0.3125 0.125 0  0.34375 0.125 0  0.375 0.125 0  0.40625 0.125 0  0.4375 0.125 0  0.46875 0.125 0  0.5 0.125 0  0.53125 0.125 0  0.5625 0.125 0  0.59375 0.125 0  0.625 0.125 0  0.65625 0.125 0  0.6875 0.125 0  0.71875 0.125 0  0.75 0.125 0  0.78125 0.125 0  0.8125 0.125 0  0.84375 0.125 0  0.875 0.125 0  0.90625 0.125 0  0.9375 0.125 0  0.96875 0.125 0  1 0.125 0  0 0.15625 0  0.03125 0.15625 0  0.0625 0.15625 0  0.09375 0.15625 0  0.125 0.15625 0  0.15625 0.15625 0  0.1875 0.15625 0  0.21875 0.15625 0  0.25 0.15625 0  0.28125 0.15625 0  0.3125 0.15625 0  0.34375 0.15625 0  0.375 0.15625 0  0.40625 0.15625 0  0.4375 0.15625 0  0.46875 0.15625 0  0.5 0.15625 0  0.53125 0.15625 0  0.5625 0.15625 0  0.59375 0.15625 0  0.625 0.15625 0  0.65625 0.15625 0  0.6875 0.15625 0  0.71875 0.15625 0  0.75 0.15625 0  0.78125 0.15625 0  0.8125 0.15625 0  0.84375 0.15625 0  0.875 0.15625 0  0.90625 0.15625 0  0.9375 0.15625 0  0.96875 0.15625 0  1 0.15625 0  0 0.1875 0  0.03125 0.1875 0  0.0625 0.1875 0  0.09375 0.1875 0  0.125 0.1875 0  0.15625 0.1875 0  0.1875 0.1875 0  0.21875 0.1875 0  0.25 0.1875 0  0.28125 0.1875 0  0.3125 0.1875 0  0.34375 0.1875 0  0.375 0.1875 0  0.40625 0.1875 0  0.4375 0.1875 0  0.46875 0.1875 0  0.5 0.1875 0  0.53125 0.1875 0  0.5625 0.1875 0  0.59375 0.1875 0  0.625 0.1875 0  0.65625 0.1875 0  0.6875 0.1875 0  0.71875 0.1875 0  0.75 0.1875 0  0.78125 0.1875 0  0.8125 0.1875 0  0.84375 0.1875 0  0.875 0.1875 0  0.90625 0.1875 0  0.9375 0.1875 0  0.96875 0.1875 0  1 0.1875 0  0 0.21875 0  0.03125 0.21875 0  0.0625 0.21875 0  0.09375 0.21875 0  0.125 0.21875 0  0.15625 0.21875 0  0.1875 0.21875 0  0.21875 0.21875 0  0.25 0.21875 0  0.28125 0.21875 0  0.3125 0.21875 0  0.34375 0.21875 0  0.375 0.21875 0  0.40625 0.21875 0  0.4375 0.21875 0  0.46875 0.21875 0  0.5 0.21875 0  0.53125 0.21875 0  0.5625 0.21875 0  0.59375 0.21875 0  0.625 0.21875 0  0.65625 0.21875 0  0.6875 0.21875 0  0.71875 0.21875 0  0.75 0.21875 0  0.78125 0.21875 0  0.8125 0.21875 0  0.84375 0.21875 0  0.875 0.21875 0  0.90625 0.21875 0  0.9375 0.21875 0  0.96875 0.21875 0  1 0.21875 0  0 0.25 0  0.03125 0.25 0  0.0625 0.25 0  0.09375 0.25 0  0.125 0.25 0  0.15625 0.25 0  0.1875 0.25 0  0.21875 0.25 0  0.25 0.25 0  0.28125 0.25 0  0.3125 0.25 0  0.34375 0.25 0  0.375 0.25 0  0.40625 0.25 0  0.4375 0.25 0  0.46875 0.25 0  0.5 0.25 0  0.53125 0.25 0  0.5625 0.25 0  0.59375 0.25 0  0.625 0.25 0  0.65625 0.25 0  0.6875 0.25 0  0.71875 0.25 0  0.75 0.25 0  0.78125 0.25 0  0.8125 0.25 0  0.84375 0.25 0  0.875 0.25 0  0.90625 0.25 0  0.9375 0.25 0  0.96875 0.25 0  1 0.25 0  0 0.28125 0  0.03125 0.28125 0  0.0625 0.28125 0  0.09375 0.28125 0  0.125 0.28125 0  0.15625 0.28125 0  0.1875 0.28125 0  0.21875 0.28125 0  0.25 0.28125 0  0.28125 0.28125 0  0.3125 0.28125 0  0.34375 0.28125 0  0.375 0.28125 0  0.40625 0.28125 0  0.4375 0.28125 0  0.46875 0.28125 0  0.5 0.28125 0  0.53125 0.28125 0  0.5625 0.28125 0  0.59375 0.28125 0  0.625 0.28125 0  0.65625 0.28125 0  0.6875 0.28125 0  0.71875 0.28125 0  0.75 0.28125 0  0.78125 0.28125 0  0.8125 0.28125 0  0.84375 0.28125 0  0.875 0.28125 0  0.90625 0.28125 0  0.9375 0.28125 0  0.96875 0.28125 0  1 0.28125 0  0 0.3125 0  0.03125 0.3125 0  0.0625 0.3125 0  0.09375 0.3125 0  0.125 0.3125 0  0.15625 0.3125 0  0.1875 0.3125 0  0.21875 0.3125 0  0.25 0.3125 0  0.28125 0.3125 0  0.3125 0.3125 0  0.34375 0.3125 0  0.375 0.3125 0  0.40625 0.3125 0  0.4375 0.3125 0  0.46875 0.3125 0  0.5 0.3125 0  0.53125 0.3125 0  0.5625 0.3125 0  0.59375 0.3125 0  0.625 0.3125 0  0.65625 0.3125 0  0.6875 0.3125 0  0.71875 0.3125 0  0.75 0.3125 0  0.78125 0.3125 0  0.8125 0.3125 0  0.84375 0.3125 0  0.875 0.3125 0  0.90625 0.3125 0  0.9375 0.3125 0  0.96875 0.3125 0  1 0.3125 0  0 0.34375 0  0.03125 0.34375 0  0.0625 0.34375 0  0.09375 0.34375 0  0.125 0.34375 0  0.15625 0.34375 0  0.1875 0.34375 0  0.21875 0.34375 0  0.25 0.34375 0  0.28125 0.34375 0  0.3125 0.34375 0  0.34375 0.34375 0  0.375 0.34375 0  0.40625 0.34375 0  0.4375 0.34375 0  0.46875 0.34375 0  0.5 0.34375 0  0.53125 0.34375 0  0.5625 0.34375 0  0.59375 0.34375 0  0.625 0.34375 0  0.65625 0.34375 0  0.6875 0.34375 0  0.71875 0.34375 0  0.75 0.34375 0  0.78125 0.34375 0  0.8125 0.34375 0  0.84375 0.34375 0  0.875 0.34375 0  0.90625 0.34375 0  0.9375 0.34375 0  0.96875 0.34375 0  1 0.34375 0  0 0.375 0  0.03125 0.375 0  0.0625 0.375 0  0.09375 0.375 0  0.125 0.375 0  0.15625 0.375 0  0.1875 0.375 0  0.21875 0.375 0  0.25 0.375 0  0.28125 0.375 0  0.3125 0.375 0  0.34375 0.375 0  0.375 0.375 0  0.40625 0.375 0  0.4375 0.375 0  0.46875 0.375 0  0.5 0.375 0  0.53125 0.375 0  0.5625 0.375 0  0.59375 0.375 0  0.625 0.375 0  0.65625 0.375 0  0.6875 0.375 0  0.71875 0.375 0  0.75 0.375 0  0.78125 0.375 0  0.8125 0.375 0  0.84375 0.375 0  0.875 0.375 0  0.90625 0.375 0  0.9375 0.375 0  0.96875 0.375 0  1 0.375 0  0 0.40625 0  0.03125 0.40625 0  0.0625 0.40625 0  0.09375 0.40625 0  0.125 0.40625 0  0.15625 0.40625 0  0.1875 0.40625 0  0.21875 0.40625 0  0.25 0.40625 0  0.28125 0.40625 0  0.3125 0.40625 0  0.34375 0.40625 0  0.375 0.40625 0  0.40625 0.40625 0  0.4375 0.40625 0  0.46875 0.40625 0  0.5 0.40625 0  0.53125 0.40625 0  0.5625 0.40625 0  0.59375 0.40625 0  0.625 0.40625 0  0.65625 0.40625 0  0.6875 0.40625 0  0.71875 0.40625 0  0.75 0.40625 0  0.78125 0.40625 0  0.8125 0.40625 0  0.84375 0.40625 0  0.875 0.40625 0  0.90625 0.40625 0  0.9375 0.40625 0  0.96875 0.40625 0  1 0.40625 0  0 0.4375 0  0.03125 0.4375 0  0.0625 0.4375 0  0.09375 0.4375 0  0.125 0.4375 0  0.15625 0.4375 0  0.1875 0.4375 0  0.21875 0.4375 0  0.25 0.4375 0  0.28125 0.4375 0  0.3125 0.4375 0  0.34375 0.4375 0  0.375 0.4375 0  0.40625 0.4375 0  0.4375 0.4375 0  0.46875 0.4375 0  0.5 0.4375 0  0.53125 0.4375 0  0.5625 0.4375 0  0.59375 0.4375 0  0.625 0.4375 0  0.65625 0.4375 0  0.6875 0.4375 0  0.71875 0.4375 0  0.75 0.4375 0  0.78125 0.4375 0  0.8125 0.4375 0  0.84375 0.4375 0  0.875 0.4375 0  0.90625 0.4375 0  0.9375 0.4375 0  0.96875 0.4375 0  1 0.4375 0  0 0.46875 0  0.03125 0.46875 0  0.0625 0.46875 0  0.09375 0.46875 0  0.125 0.46875 0  0.15625 0.46875 0  0.1875 0.46875 0  0.21875 0.46875 0  0.25 0.46875 0  0.28125 0.46875 0  0.3125 0.46875 0  0.34375 0.46875 0  0.375 0.46875 0  0.40625 0.46875 0  0.4375 0.46875 0  0.46875 0.46875 0  0.5 0.46875 0  0.53125 0.46875 0  0.5625 0.46875 0  0.59375 0.46875 0  0.625 0.46875 0  0.65625 0.46875 0  0.6875 0.46875 0  0.71875 0.46875 0  0.75 0.46875 0  0.78125 0.46875 0  0.8125 0.46875 0  0.84375 0.46875 0  0.875 0.46875 0  0.90625 0.46875 0  0.9375 0.46875 0  0.96875 0.46875 0  1 0.46875 0  0 0.5 0  0.03125 0.5 0  0.0625 0.5 0  0.09375 0.5 0  0.125 0.5 0  0.15625 0.5 0  0.1875 0.5 0  0.21875 0.5 0  0.25 0.5 0  0.28125 0.5 0  0.3125 0.5 0  0.34375 0.5 0  0.375 0.5 0  0.40625 0.5 0  0.4375 0.5 0  0.46875 0.5 0  0.5 0.5 0  0.53125 0.5 0  0.5625 0.5 0  0.59375 0.5 0  0.625 0.5 0  0.65625 0.5 0  0.6875 0.5 0  0.71875 0.5 0  0.75 0.5 0  0.78125 0.5 0  0.8125 0.5 0  0.84375 0.5 0  0.875 0.5 0  0.90625 0.5 0  0.9375 0.5 0  0.96875 0.5 0  1 0.5 0  0 0.53125 0  0.03125 0.53125 0  0.0625 0.53125 0  0.09375 0.53125 0  0.125 0.53125 0  0.15625 0.53125 0  0.1875 0.53125 0  0.21875 0.53125 0  0.25 0.53125 0  0.28125 0.53125 0  0.3125 0.53125 0  0.34375 0.53125 0  0.375 0.53125 0  0.40625 0.53125 0  0.4375 0.53125 0  0.46875 0.53125 0  0.5 0.53125 0  0.53125 0.53125 0  0.5625 0.53125 0  0.59375 0.53125 0  0.625 0.53125 0  0.65625 0.53125 0  0.6875 0.53125 0  0.71875 0.53125 0  0.75 0.53125 0  0.78125 0.531
[...]
<PointData  Scalars="u"> 
<DataArray  type="Float64"  Name="u"  format="ascii">0.0000000000000000e+00  0.0000000000000000e+00  0.0000000000000000e+00  0.0000000000000000e+00  0.0000000000000000e+00  0.0000000000000000e+00  0.0000000000000000e+00  0.0000000000000000e+00  0.0000000000000000e+00  0.0000000000000000e+00  0.0000000000000000e+00  0.0000000000000000e+00  0.0000000000000000e+00  0.0000000000000000e+00  0.0000000000000000e+00  0.0000000000000000e+00  0.0000000000000000e+00  0.0000000000000000e+00  0.0000000000000000e+00  0.0000000000000000e+00  0.0000000000000000e+00  0.0000000000000000e+00  0.0000000000000000e+00  0.0000000000000000e+00  0.0000000000000000e+00  0.0000000000000000e+00  0.0000000000000000e+00  0.0000000000000000e+00  0.0000000000000000e+00  0.0000000000000000e+00  0.0000000000000000e+00  0.0000000000000000e+00  0.0000000000000000e+00  0.0000000000000000e+00  1.4791644287309535e-02  2.9536901501371688e-02  4.4140469987548406e-02  5.8426708276792146e-02  7.2113837593428071e-02  8.4814856444191719e-02  9.6078982733032739e-02  1.0547742026243025e-01  1.1272018075267837e-01  1.1778295345984864e-01  1.2098197602159066e-01  1.2289698711579558e-01  1.2418369834260604e-01  1.2542044606123065e-01  1.2703135816199188e-01  1.2925852444278252e-01  1.3214513083964274e-01  1.3550717705648413e-01  1.3889471750247959e-01  1.4157017379092041e-01  1.4255387686740684e-01  1.4078307680505037e-01  1.3538664397394418e-01  1.2605704360519693e-01  1.1330575857879414e-01  9.8210142293740518e-02  8.1878718623940569e-02  6.5139007628131795e-02  4.8473634504957043e-02  3.2079998930117919e-02  1.5960053027010125e-02  0.0000000000000000e+00  0.0000000000000000e+00  2.9689347221228724e-02  5.9325467114553540e-02  8.8757088591046945e-02  1.1765816525190587e-01  1.4546374509254301e-01  1.7135801591971539e-01  1.9435340187894459e-01  2.1347534289813255e-01  2.2801688638698520e-01  2.3785437838807819e-01  2.4369706373000269e-01  2.4689160529301576e-01  2.4890246963668111e-01  2.5096294274917019e-01  2.5394896032932873e-01  2.5836145343959160e-01  2.6431498065516618e-01  2.7148024569178730e-01  2.7897909345559774e-01  2.8529105540108496e-01  2.8829824027656314e-01  2.8560109198403016e-01  2.7508603972258105e-01  2.5588296026470297e-01  2.2926787054080103e-01  1.9792987948311172e-01  1.6439809273237227e-01  1.3039164078858220e-01  9.6816565787469555e-02  6.3978507088222752e-02  3.1802364904392089e-02  0.0000000000000000e+00  0.0000000000000000e+00  4.4750422783041741e-02  8.9528871407571320e-02  1.3421193220855299e-01  1.7838612896646905e-01  2.2121431718022577e-01  2.6137205973194888e-01  2.9714977096452166e-01  3.2677233476537598e-01  3.4880004487507654e-01  3.6276003967972753e-01  3.6994940953027711e-01  3.7300049879230573e-01  3.7453477175257166e-01  3.7656613212873191e-01  3.8043965983113676e-01  3.8692625641321898e-01  3.9626912005299542e-01  4.0809851162619432e-01  4.2120158370382454e-01  4.3323057030306128e-01  4.4061464121293203e-01  4.3905134771126925e-01  4.2422895127629928e-01  3.9381301543771302e-01  3.5057666009934246e-01  3.0039274948296818e-01  2.4786042211732595e-01  1.9559385719879047e-01  1.4471077864930684e-01  9.5406687908656224e-02  4.7363156315660411e-02  0.0000000000000000e+00  0.0000000000000000e+00  5.9942901839713812e-02  1.2013602845477672e-01  1.8062859473571902e-01  2.4105149616143842e-01  3.0035754025838052e-01  3.5661052097499740e-01  4.0705875362052840e-01  4.4872561151030937e-01  4.7880744519465357e-01  4.9567890862271802e-01  5.0165835607496900e-01  5.0200807985226958e-01  5.0110175204790397e-01  5.0179429275741405e-01  5.0580480263532313e-01  5.1412731858166250e-01  5.2721852822525805e-01  5.4489807289819026e-01  5.6591021027560995e-01  5.8716882117823865e-01  6.0316061974082813e-01  6.0696106594163990e-01  5.9007764283593689e-01  5.4558362767231450e-01  4.7975516214041519e-01  4.0601894507435199e-01  3.3175392015054389e-01  2.5998131208089620e-01  1.9145794297444030e-01  1.2586302177735537e-01  6.2384884610873471e-02  0.0000000000000000e+00  0.0000000000000000e+00  7.5092203737709334e-02  1.5084678731639606e-01  2.2770792042628984e-01  3.0560806776839294e-01  3.8349886711949116e-01  4.5875763165175421e-01  5.2699980448727557e-01  5.8364990463345090e-01  6.2353642918392560e-01  6.4111676933111805e-01  6.4072766277773696e-01  6.3408973303753302e-01  6.2795629097340488e-01  6.2563910889368446e-01  6.2882003233914952e-01  6.3852809110208142e-01  6.5553251911772237e-01  6.8027988228996539e-01  7.1222613457104067e-01  7.4814469719933607e-01  7.7956711643918386e-01  7.9710909129838414e-01  7.8497284527295419e-01  7.2000847680444691e-01  6.1804103132087995e-01  5.1323961173970034e-01  4.1407002715787350e-01  3.2186846440816808e-01  2.3584696337225294e-01  1.5458504889195573e-01  7.6502123599248378e-02  0.0000000000000000e+00  0.0000000000000000e+00  8.9831714668246090e-02  1.8094448204071970e-01  2.7447455215787442e-01  3.7112148041560916e-01  4.7042639175374085e-01  5.6926647336666747e-01  6.6005379485864268e-01  7.3702062299442916e-01  7.9240725074516927e-01  8.0650728211800371e-01  7.8816516883913557e-01  7.6790099167819248e-01  7.5331752981560396e-01  7.4637064218323368e-01  7.4772766872057095e-01  7.5805929961334639e-01  7.7850916917037827e-01  8.1081694553053552e-01  8.5684046792465840e-01  9.1577329420758380e-01  9.7187217519937275e-01  1.0037539486815734e+00  1.0043165715257645e+00  9.1796878798530546e-01  7.6060986525953900e-01  6.1612660691017385e-01  4.9053857360055203e-01  3.7849556966647629e-01  2.7617856734465313e-01  1.8060011574866150e-01  8.9272721540705147e-02  0.0000000000000000e+00  0.0000000000000000e+00  1.0358595091129956e-01  2.0920397711117100e-01  3.1897621631045869e-01  4.3508587108622931e-01  5.5916466684152277e-01  6.8939000819566265e-01  8.0868901431177087e-01  8.9887038624823123e-01  9.7459293036888583e-01  9.9159487455391049e-01  9.4000273572304360e-01  8.9865773678019689e-01  8.7378031673393985e-01  8.6161280860204315e-01  8.6051740468719951e-01  8.7033705856307852e-01  8.9246524254671622e-01  9.3040898720255072e-01  9.9120610016083699e-01  1.0736981441543934e+00  1.1606291885464595e+00  1.1987141596082096e+00  1.1771093904466963e+00  1.0683758313542775e+00  8.7692836282463238e-01  7.0163128039079148e-01  5.5477533834018877e-01  4.2647812396693358e-01  3.1059847500704985e-01  2.0292090414289501e-01  1.0026581498131061e-01  0.0000000000000000e+00  0.0000000000000000e+00  1.1564465510853200e-01  2.3396906047345103e-01  3.5811012971466960e-01  4.9233954922450640e-01  6.4327539697703995e-01  8.0714583886924263e-01  9.5831937334849926e-01  1.0472659933453941e+00  1.0975123545071426e+00  1.1274987433365069e+00  1.0693544366176913e+00  1.0159405358388467e+00  9.8466352431991888e-01  9.6900434932429913e-01  9.6566310710711500e-01  9.7358649108649231e-01  9.9385312240331058e-01  1.0303146574145829e+00  1.0918624445221650e+00  1.1848882276317090e+00  1.2654403790557258e+00  1.3053004186809749e+00  1.2737156349615513e+00  1.1530639121044164e+00  9.4889203978789882e-01  7.6041268353935199e-01  6.0194934716857507e-01  4.6327685209242470e-01  3.3776042005403673e-01  2.2085555946203303e-01  1.0918717371371808e-01  0.0000000000000000e+00  0.0000000000000000e+00  1.2539861679216888e-01  2.5365355667901673e-01  3.8823687340506791e-01  5.3428654754920024e-01  7.0108654196460685e-01  8.9438766790298285e-01  1.0519745561695713e+00  1.1314494398960131e+00  1.1831498743705660e+00  1.2189982232769256e+00  1.1670089195334485e+00  1.1144281755457073e+00  1.0834287456396441e+00  1.0676818334327332e+00  1.0632042864559572e+00  1.0681636253242019e+00  1.0826814717255469e+00  1.1086822590041490e+00  1.1493953997981918e+00  1.2064249809384826e+00  1.2634311136857999e+00  1.3054725291156075e+00  1.2812995776358984e+00  1.1730881724704529e+00  9.7718520169378753e-01  7.9109879467432598e-01  6.3100366222240445e-01  4.8829690355404426e-01  3.5736455065337042e-01  2.3426414781454355e-01  1.1598238113706448e-01  0.0000000000000000e+00  0.0000000000000000e+00  1.3270755502270856e-01  2.6781823125664361e-01  4.0808596875924552e-01  5.5702353085833456e-01  7.1919998818399877e-01  8.9909434339004513e-01  1.0756567588330275e+00  1.1858689431494289e+00  1.2424162370870748e+00  1.2811425377554135e+00  1.2386023117715235e+00  1.1950082910136688e+00  1.1707875956800204e+00  1.1590494122161674e+00  1.1553294416134887e+00  1.1572159033184017e+00  1.1640248477501993e+00  1.1762485510157339e+00  1.1943794896962372e+00  1.2165046375305830e+00  1.2345651341318455e+00  1.2394913280388311e+00  1.2101987657120761e+00  1.1328982861703323e+00  9.6792121038017487e-01  7.9791561346375084e-01  6.4450829953093081e-01  5.0305446854791425e-01  3.7029195466705295e-01  2.4363260940006415e-01  1.2086769303068108e-01  0.0000000000000000e+00  0.0000000000000000e+00  1.3805862083359077e-01  2.7770284346469704e-01  4.2055740072716763e-01  5.6820243630083545e-01  7.2162661851589094e-01  8.7937710655818413e-01  1.0328938986304150e+00  1.1614436157266566e+00  1.2625068943917634e+00  1.3076526336966836e+00  1.2849010758408097e+00  1.2602017425199483e+00  1.2498300975520162e+00  1.2466833176745078e+00  1.2461971522334974e+00  1.2457089468133649e+00  1.2442818503982003e+00  1.2421511098017384e+00  1.2394762386525433e+00  1.2345671866259507e+00  1.2225163598855218e+00  1.1960948342813196e+00  1.1450941442629954e+00  1.0628698160651826e+00  9.3618727848925332e-01  7.9045136176698128e-01  6.4805543863270665e-01  5.1075640624118979e-01  3.7836365477467304e-01  2.4994666091753850e-01  1.2427630899701528e-01  0.0000000000000000e+00  0.0000000000000000e+00  1.4230040718818615e-01  2.8531719871607575e-01  4.2962677107211783e-01  5.7541535208251193e-01  7.2193306249167677e-01  8.6645448680816683e-01  1.0029331424721135e+00  1.1225484921679583e+00  1.2216205283860984e+00  1.2854487009623010e+00  1.3070894230861982e+00  1.3153431007843484e+00  1.3261027347264314e+00  1.3362304412240464e+00  1.3417056833224483e+00  1.3397944175075425e+00  1.3298619626079111e+00  1.3131341661122895e+00  1.2912108895120860e+00  1.2639938926352723e+00  1.2288344489072631e+00  1.1810092716576104e+00  1.1146528883505051e+00  1.0253867515162447e+00  9.1128511356311770e-01  7.8214534522941714e-01  6.4864407246896161e-01  5.1529818072614919e-01  3.8378863118631851e-01  2.5440822097482652e-01  1.2673870645633975e-01  0.0000000000000000e+00  0.0000000000000000e+00  1.4632966724920141e-01  2.9263495803021711e-01  4.3869129780903898e-01  5.8382990405217861e-01  7.2659535808340447e-01  8.6433050947397749e-01  9.9295416963719108e-01  1.1076467864351882e+00  1.2046861661587136e+00  1.2793791966399497e+00  1.3319250981721560e+00  1.3725129887746479e+00  1.4077130418995425e+00  1.4352500882792825e+00  1.4494834474585319e+00  1.4467981082340153e+00  1.4271014024753861e+00  1.3940955085359688e+00  1.3528917331763224e+00  1.3058365844025137e+00  1.2520672342195240e+00  1.1884389421483488e+00  1.1108073106901353e+00  1.0161011506230910e+00  9.0443961881296431e-01  7.8085402837314399e-01  6.5133749493972026e-01  5.1984386192999055e-01  3.8848282509873011e-01  2.5809896713455560e-01  1.2874131964072894e-01  0.0000000000000000e+00  0.0000000000000000e+00  1.5091055445918986e-01  3.0124562441299990e-01  4.5022055664936683e-01  5.9664754995709268e-01  7.3877498212857762e-01  8.7423175178101309e-01  1.0002135744304441e+00  1.1140651353463558e+00  1.2140896625213431e+00  1.2997394634468695e+00  1.3732579332662203e+00  1.4398214483140108e+00  1.5018946984296848e+00  1.5525865399874730e+00  1.5792504219023764e+00  1.5758971729749038e+00  1.5427038352449811e+00  1.4882315380254085e+00  1.4252734684077166e+00  1.3590648715593754e+00  1.2896038974752941e+00  1.2140469532623328e+00  1.1279041948388453e+00  1.0273007895570809e+00  9.1268318695762785e-01  7.8826777603909992e-01  6.5836504086263947e-01  5.2617263399171954e-01  3.9365393640506957e-01  2.6174059941341771e-01  1.3061741449618161e-01  0.0000000000000000e+00  0.0000000000000000e+00  1.5661291657613674e-01  3.1229875455030326e-01  4.6590303654956089e-01  6.1587343319886001e-01  7.6021221594184429e-01  8.9664333870694291e-01  1.0230535503235558e+00  1.1381392448983620e+00  1.2420357809731217e+00  1.3366960517037858e+00  1.4262612526216727e+00  1.5165324259954025e+00  1.6125090241958877e+00  1.6990902490998550e+00  1.7442218352163659e+00  1.7400369639290008e+00  1.6847638149328719e+00  1.5959656701182074e+00  1.5058977642001612e+00  1.4203612677131943e+00  1.3378228487047736e+00  1.2545502852095169e+00  1.1634547384162042e+00  1.0561585412351207e+00  9.3399029280762080e-01  8.0402845907244092e-01  6.7010936882705330e-01  5.3479873220824681e-01  3.9971503146798326e-01  2.6559674751935314e-01  1.3249167748994828e-01  0.0000000000000000e+00  0.0000000000000000e+00  1.6380196693239488e-01  3.2654380228720375e-01  4.8686707730149276e-01  6.4289638743208710e-01  7.9221534677895056e-01  9.3219706395292601e-01  1.0607682164618610e+00  1.1773435061527058e+00  1.2835074358539957e+00  1.3833374223383883e+00  1.4833939035525867e+00  1.5925547078377478e+00  1.7226021058749992e+00  1.8621399930067777e+00  1.9336374298497949e+00  1.9304061820268552e+00  1.8505301426265208e+00  1.7101536077493280e+00  1.5870691107444588e+00  1.4835662541967942e+00  1.3914499838960708e+00  1.3072649939217256e+00  1.2192679840067659e+00  1.1035947123075123e+00  9.6641388736291067e-01  8.2665646031697826e-01  6.8571507088796102e-01  5.4520348813189623e-01  4.0633227282409573e-01  2.6946213696653110e-01  1.3426579347554904e-01  0.0000000000000000e+00  0.0000000000000000e+00  1.7261876358205752e-01  3.4433447931767608e-01  5.1379778007786292e-01  6.7882812771795520e-01  8.3625473899763036e-01  9.8233126790085268e-01  1.1140856085827955e+00  1.2309643718949330e+00  1.3356724777419844e+00  1.4344145508963293e+00  1.5363264109683559e+00  1.6527627163033443e+00  1.7982700000349394e+00  1.9629987683798142e+00  2.0525113706498073e+00  2.0521598690866272e+00  1.9616403596795666e+00  1.7971987918874217e+00  1.6537696595267410e+00  1.5403305051388134e+00  1.4418564002599312e+00  1.3531606519234640e+00  1.2767417097027469e+00  1.1612090006817810e+00  1.0047504289433458e+00  8.5339381635181277e-01  7.0337581132450500e-01  5.5598688627679604e-01  4.1248091564900458e-01  2.7268401571051698e-01  1.3562699918505824e-01  0.0000000000000000e+00  0.0000000000000000e+00  1.8290806636058571e-01  3.6550886098264662e-01  5.4683989566823910e-01  7.2456850269714235e-01  8.9435006188843325e-01  1.0499653844176260e+00  1.1858956552890991e+00  1.3007752523325438e+00  1.3981816409546339e+00  1.4870061865120663e+00  1.5796607862776504e+00  1.6889886716628502e+00  1.8297838214787505e+00  1.9937750249016652e+00  2.0858462588757551e+00  2.0886811694373035e+00  2.0013818981718123e+00  1.8383089202467151e+00  1.6955779873678281e+00  1.5870656516623936e+00  1.4871851175826529e+00  1.3761368454370715e+00  1.2720663095226210e+00  1.1581192543420231e+00  1.0262492997779404e+00  8.8169814613397934e-01  7.2087944171002771e-01  5.6489855735354788e-01  4.1644859099332004e-01  2.7419416427573756e-01  1.3607530307328686e-01  0.0000000000000000e+00  0.0000000000000000e+00  1.9406923691568675e-01  3.8907477453880351e-01  5.8514710469473785e-01  7.8043693638472733e-01  9.6928466441225236e-01  1.1404221059975634e+00  1.2823297734809207e+00  1.3920362298706002e+00  1.4736134895363704e+00  1.5404216570521359e+00  1.6112238583206437e+00  1.6988168360623468e+00  1.8131526799679094e+00  1.9511542696677948e+00  2.0329891777435427e+00  2.0399029624541054e+00  1.9715650446337643e+00  1.8341078287562984e+00  1.7082146699884437e+00  1.6150010791276455e+00  1.5332775946066963e+00  1.3964941929224379e+00  1.2662453833467564e+00  1.1465129469995061e+00  1.0335979054490039e+00  9.1407705548569596e-01  7.3597630269083336e-01  5.6826202569602846e-01  4.1572960779750817e-01  2.7258508438328510e-01  1.3499182817069916e-01  0.0000000000000000e+00  0.0000000000000000e+00  2.0484677356315109e-01  4.1267142088551745e-01  6.2585987087425554e-01  8.4486943368042489e-01  1.0645215037886921e+00  1.2631460045732885e+00  1.4144277120835886e+00  1.5152921383091884e+00  1.5680534179270049e+00  1.5944090408986233e+00  1.6308238560225621e+00  1.6869126282559697e+00  1.7629140698661538e+00  1.8494555236889796e+00  1.9097034320743509e+00  1.9210129517398511e+00  1.8805385472127205e+00  1.7933057309311202e+00  1.6931334627292443e+00  1.6061332475333689e+00  1.5336457242334198e+00  1.3995371277286357e+00  1.2538622459608237e+00  1.1316794555552270e+00  1.0206494683137641e+00  9.0249171036911646e-01  7.2800593329148344e-01  5.5837899656746381e-01  4.0709879552433220e-01  2.6642018961611830e-01  1.3180879251376484e-01  0.0000000000000000e+00  0.0000000000000000e+00  2.1318024114227993e-01  4.3196285069578583e-01  6.6231032957922487e-01  9.1068413494732947e-01  1.1681961593823660e+00  1.4059875530018620e+00  1.5701228242115046e+00  1.6602321402774598e+00  1.6779150155662572e+00  1.6427515129773136e+00  1.6354478137910926e+00  1.6599969271495267e+00  1.7071576989724275e+00  1.7640737984764818e+00  1.8103358581113276e+00  1.8288663571837254e+00  1.8111922019636268e+00  1.7553486776629672e+00  1.6697176831470057e+00  1.5723556194436754e+00  1.4796701414001106e+00  1.3731426387455634e+00  1.2218268764906028e+00  1.0941377495134170e+00  9.8783417511093352e-01  8.4460551517829530e-01  6.8737465279550336e-01  5.3202454853833758e-01  3.8929835940625296e-01  2.5515446297782091e-01  1.2631083335736534e-01  0.0000000000000000e+00  0.0000000000000000e+00  2.1642029789393852e-01  4.4069652986647018e-01  6.8220825072471114e-01  9.5421025521815817e-01  1.2487304393917074e+00  1.4897176169077515e+00  1.6524073660010759e+00  1.7305560618783271e+00  1.7240767168297533e+00  1.6523896288652018e+00  1.6127297321727510e+00  1.6152013845446145e+00  1.6465167838139958e+00  1.6942839757202286e+00  1.7436494794135284e+00  1.7778460641299352e+00  1.7848771624476558e+00  1.7519535018424615e+00  1.6626851874421549e+00  1.5383787939308415e+00  1.4136888665692917e+00  1.2901972794030108e+00  1.1548138174676810e+00  1.0235278408340702e+00  9.0465964486656147e-01  7.7323135420289746e-01  6.3202852914989771e-01  4.9485299572902486e-01  3.6429355337357339e-01  2.3951802255084714e-01  1.1874944912945885e-01  0.0000000000000000e+00  0.0000000000000000e+00  2.1228419430754566e-01  4.3314224059481127e-01  6.7299426253781314e-01  9.4688077436215168e-01  1.2494728660021834e+00  1.4886574102530521e+00  1.6414518194999879e+00  1.7081085350743390e+00  1.6885444969392462e+00  1.6038603797109017e+00  1.5521550181609889e+00  1.5460655073863601e+00  1.5740699892646028e+00  1.6276092384809207e+00  1.6968502038746913e+00  1.7586659790406198e+00  1.7880658779974234e+00  1.7793041204547591e+00  1.6800254776428174e+00  1.5090252599264979e+00  1.3505541690687806e+00  1.2078999270804205e+00  1.0721850550504495e+00  9.4371559922488268e-01  8.2186425238256056e-01  6.9908313359878804e-01  5.7477453835841674e-01  4.5279068016991708e-01  3.3481728800260468e-01  2.2075911922624986e-01  1.0961573847971219e-01  0.0000000000000000e+00  0.0000000000000000e+00  2.0002198352969647e-01  4.0747795267267539e-01  6.3102862576870045e-01  8.8237762311386803e-01  1.1650819646835364e+00  1.3956512864330968e+00  1.5386279015844506e+00  1.5942402978687775e+00  1.5709745340335797e+00  1.4959455196022355e+00  1.4499656162031176e+00  1.4470579320561030e+00  1.4804433007493576e+00  1.5496397099333339e+00  1.6468192468517784e+00  1.7461313821837208e+00  1.7885036238868730e+00  1.7658792567133472e+00  1.6527485189731581e+00  1.4560270354563545e+00  1.2753856661555105e+00  1.1222389693055339e+00  9.8563371213196627e-01  8.6031733217559991e-01  7.4270677292644960e-01  6.2882454092765994e-01  5.1719685080356059e-01  4.0834240950299849e-01  3.0265904733325727e-01  1.9991580787690488e-01  9.9374086028616151e-02  0.0000000000000000e+00  0.0000000000000000e+00  1.8073907714071780e-01  3.6653660171049857e-01  5.6245424269537503e-01  7.7298295851380072e-01  9