<?xml version="1.0"?>
<VTKFile type="UnstructuredGrid"  version="0.1"  >
<UnstructuredGrid>
<Piece  NumberOfPoints="1089" NumberOfCells="2048">
<Points>
<DataArray  type="Float64"  NumberOfComponents="3"  format="ascii">0 0 0  0.03125 0 0  0.0625 0 0  0.09375 0 0  0.125 0 0  0.15625 0 0  0.1875 0 0  0.21875 0 0  0.25 0 0  0.28125 0 0  0.3125 0 0  0.34375 0 0  0.375 0 0  0.40625 0 0  0.4375 0 0  0.46875 0 0  0.5 0 0  0.53125 0 0  0.5625 0 0  0.59375 0 0  0.625 0 0  0.65625 0 0  0.6875 0 0  0.71875 0 0  0.75 0 0  0.78125 0 0  0.8125 0 0  0.84375 0 0  0.875 0 0  0.90625 0 0  0.9375 0 0  0.96875 0 0  1 0 0  0 0.03125 0  0.03125 0.03125 0  0.0625 0.03125 0  0.09375 0.03125 0  0.125 0.03125 0  0.15625 0.03125 0  0.1875 0.03125 0  0.21875 0.03125 0  0.25 0.03125 0  0.28125 0.03125 0  0.3125 0.03125 0  0.34375 0.03125 0  0.375 0.03125 0  0.40625 0.03125 0  0.4375 0.03125 0  0.46875 0.03125 0  0.5 0.03125 0  0.53125 0.03125 0  0.5625 0.03125 0  0.59375 0.03125 0  0.625 0.03125 0  0.65625 0.03125 0  0.6875 0.03125 0  0.71875 0.03125 0  0.75 0.03125 0  0.78125 0.03125 0  0.8125 0.03125 0  0.84375 0.03125 0  0.875 0.03125 0  0.90625 0.03125 0  0.9375 0.03125 0  0.96875 0.03125 0  1 0.03125 0  0 0.0625 0  0.03125 0.0625 0  0.0625 0.0625 0  0.09375 0.0625 0  0.125 0.0625 0  0.15625 0.0625 0  0.1875 0.0625 0  0.21875 0.0625 0  0.25 0.0625 0  0.28125 0.0625 0  0.3125 0.0625 0  0.34375 0.0625 0  0.375 0.0625 0  0.40625 0.0625 0  0.4375 0.0625 0  0.46875 0.0625 0  0.5 0.0625 0  0.53125 0.0625 0  0.5625 0.0625 0  0.59375 0.0625 0  0.625 0.0625 0  0.65625 0.0625 0  0.6875 0.0625 0  0.71875 0.0625 0  0.75 0.0625 0  0.78125 0.0625 0  0.8125 0.0625 0  0.84375 0.0625 0  0.875 0.0625 0  0.90625 0.0625 0  0.9375 0.0625 0  0.96875 0.0625 0  1 0.0625 0  0 0.09375 0  0.03125 0.09375 0  0.0625 0.09375 0  0.09375 0.09375 0  0.125 0.09375 0  0.15625 0.09375 0  0.1875 0.09375 0  0.21875 0.09375 0  0.25 0.09375 0  0.28125 0.09375 0  0.3125 0.09375 0  0.34375 0.09375 0  0.375 0.09375 0  0.40625 0.09375 0  0.4375 0.09375 0  0.46875 0.09375 0  0.5 0.09375 0  0.53125 0.09375 0  0.5625 0.09375 0  0.59375 0.09375 0  0.625 0.09375 0  0.65625 0.09375 0  0.6875 0.09375 0  0.71875 0.09375 0  0.75 0.09375 0  0.78125 0.09375 0  0.8125 0.09375 0  0.84375 0.09375 0  0.875 0.09375 0  0.90625 0.09375 0  0.9375 0.09375 0  0.96875 0.09375 0  1 0.09375 0  0 0.125 0  0.03125 0.125 0  0.0625 0.125 0  0.09375 0.125 0  0.125 0.125 0  0.15625 0.125 0  0.1875 0.125 0  0.21875 0.125 0  0.25 0.125 0  0.28125 0.125 0  0.3125 0.125 0  0.34375 0.125 0  0.375 0.125 0  0.40625 0.125 0  0.4375 0.125 0  0.46875 0.125 0  0.5 0.125 0  0.53125 0.125 0  0.5625 0.125 0  0.59375 0.125 0  0.625 0.125 0  0.65625 0.125 0  0.6875 0.125 0  0.71875 0.125 0  0.75 0.125 0  0.78125 0.125 0  0.8125 0.125 0  0.84375 0.125 0  0.875 0.125 0  0.90625 0.125 0  0.9375 0.125 0  0.96875 0.125 0  1 0.125 0  0 0.15625 0  0.03125 0.15625 0  0.0625 0.15625 0  0.09375 0.15625 0  0.125 0.15625 0  0.15625 0.15625 0  0.1875 0.15625 0  0.21875 0.15625 0  0.25 0.15625 0  0.28125 0.15625 0  0.3125 0.15625 0  0.34375 0.15625 0  0.375 0.15625 0  0.40625 0.15625 0  0.4375 0.15625 0  0.46875 0.15625 0  0.5 0.15625 0  0.53125 0.15625 0  0.5625 0.15625 0  0.59375 0.15625 0  0.625 0.15625 0  0.65625 0.15625 0  0.6875 0.15625 0  0.71875 0.15625 0  0.75 0.15625 0  0.78125 0.15625 0  0.8125 0.15625 0  0.84375 0.15625 0  0.875 0.15625 0  0.90625 0.15625 0  0.9375 0.15625 0  0.96875 0.15625 0  1 0.15625 0  0 0.1875 0  0.03125 0.1875 0  0.0625 0.1875 0  0.09375 0.1875 0  0.125 0.1875 0  0.15625 0.1875 0  0.1875 0.1875 0  0.21875 0.1875 0  0.25 0.1875 0  0.28125 0.1875 0  0.3125 0.1875 0  0.34375 0.1875 0  0.375 0.1875 0  0.40625 0.1875 0  0.4375 0.1875 0  0.46875 0.1875 0  0.5 0.1875 0  0.53125 0.1875 0  0.5625 0.1875 0  0.59375 0.1875 0  0.625 0.1875 0  0.65625 0.1875 0  0.6875 0.1875 0  0.71875 0.1875 0  0.75 0.1875 0  0.78125 0.1875 0  0.8125 0.1875 0  0.84375 0.1875 0  0.875 0.1875 0  0.90625 0.1875 0  0.9375 0.1875 0  0.96875 0.1875 0  1 0.1875 0  0 0.21875 0  0.03125 0.21875 0  0.0625 0.21875 0  0.09375 0.21875 0  0.125 0.21875 0  0.15625 0.21875 0  0.1875 0.21875 0  0.21875 0.21875 0  0.25 0.21875 0  0.28125 0.21875 0  0.3125 0.21875 0  0.34375 0.21875 0  0.375 0.21875 0  0.40625 0.21875 0  0.4375 0.21875 0  0.46875 0.21875 0  0.5 0.21875 0  0.53125 0.21875 0  0.5625 0.21875 0  0.59375 0.21875 0  0.625 0.21875 0  0.65625 0.21875 0  0.6875 0.21875 0  0.71875 0.21875 0  0.75 0.21875 0  0.78125 0.21875 0  0.8125 0.21875 0  0.84375 0.21875 0  0.875 0.21875 0  0.90625 0.21875 0  0.9375 0.21875 0  0.96875 0.21875 0  1 0.21875 0  0 0.25 0  0.03125 0.25 0  0.0625 0.25 0  0.09375 0.25 0  0.125 0.25 0  0.15625 0.25 0  0.1875 0.25 0  0.21875 0.25 0  0.25 0.25 0  0.28125 0.25 0  0.3125 0.25 0  0.34375 0.25 0  0.375 0.25 0  0.40625 0.25 0  0.4375 0.25 0  0.46875 0.25 0  0.5 0.25 0  0.53125 0.25 0  0.5625 0.25 0  0.59375 0.25 0  0.625 0.25 0  0.65625 0.25 0  0.6875 0.25 0  0.71875 0.25 0  0.75 0.25 0  0.78125 0.25 0  0.8125 0.25 0  0.84375 0.25 0  0.875 0.25 0  0.90625 0.25 0  0.9375 0.25 0  0.96875 0.25 0  1 0.25 0  0 0.28125 0  0.03125 0.28125 0  0.0625 0.28125 0  0.09375 0.28125 0  0.125 0.28125 0  0.15625 0.28125 0  0.1875 0.28125 0  0.21875 0.28125 0  0.25 0.28125 0  0.28125 0.28125 0  0.3125 0.28125 0  0.34375 0.28125 0  0.375 0.28125 0  0.40625 0.28125 0  0.4375 0.28125 0  0.46875 0.28125 0  0.5 0.28125 0  0.53125 0.28125 0  0.5625 0.28125 0  0.59375 0.28125 0  0.625 0.28125 0  0.65625 0.28125 0  0.6875 0.28125 0  0.71875 0.28125 0  0.75 0.28125 0  0.78125 0.28125 0  0.8125 0.28125 0  0.84375 0.28125 0  0.875 0.28125 0  0.90625 0.28125 0  0.9375 0.28125 0  0.96875 0.28125 0  1 0.28125 0  0 0.3125 0  0.03125 0.3125 0  0.0625 0.3125 0  0.09375 0.3125 0  0.125 0.3125 0  0.15625 0.3125 0  0.1875 0.3125 0  0.21875 0.3125 0  0.25 0.3125 0  0.28125 0.3125 0  0.3125 0.3125 0  0.34375 0.3125 0  0.375 0.3125 0  0.40625 0.3125 0  0.4375 0.3125 0  0.46875 0.3125 0  0.5 0.3125 0  0.53125 0.3125 0  0.5625 0.3125 0  0.59375 0.3125 0  0.625 0.3125 0  0.65625 0.3125 0  0.6875 0.3125 0  0.71875 0.3125 0  0.75 0.3125 0  0.78125 0.3125 0  0.8125 0.3125 0  0.84375 0.3125 0  0.875 0.3125 0  0.90625 0.3125 0  0.9375 0.3125 0  0.96875 0.3125 0  1 0.3125 0  0 0.34375 0  0.03125 0.34375 0  0.0625 0.34375 0  0.09375 0.34375 0  0.125 0.34375 0  0.15625 0.34375 0  0.1875 0.34375 0  0.21875 0.34375 0  0.25 0.34375 0  0.28125 0.34375 0  0.3125 0.34375 0  0.34375 0.34375 0  0.375 0.34375 0  0.40625 0.34375 0  0.4375 0.34375 0  0.46875 0.34375 0  0.5 0.34375 0  0.53125 0.34375 0  0.5625 0.34375 0  0.59375 0.34375 0  0.625 0.34375 0  0.65625 0.34375 0  0.6875 0.34375 0  0.71875 0.34375 0  0.75 0.34375 0  0.78125 0.34375 0  0.8125 0.34375 0  0.84375 0.34375 0  0.875 0.34375 0  0.90625 0.34375 0  0.9375 0.34375 0  0.96875 0.34375 0  1 0.34375 0  0 0.375 0  0.03125 0.375 0  0.0625 0.375 0  0.09375 0.375 0  0.125 0.375 0  0.15625 0.375 0  0.1875 0.375 0  0.21875 0.375 0  0.25 0.375 0  0.28125 0.375 0  0.3125 0.375 0  0.34375 0.375 0  0.375 0.375 0  0.40625 0.375 0  0.4375 0.375 0  0.46875 0.375 0  0.5 0.375 0  0.53125 0.375 0  0.5625 0.375 0  0.59375 0.375 0  0.625 0.375 0  0.65625 0.375 0  0.6875 0.375 0  0.71875 0.375 0  0.75 0.375 0  0.78125 0.375 0  0.8125 0.375 0  0.84375 0.375 0  0.875 0.375 0  0.90625 0.375 0  0.9375 0.375 0  0.96875 0.375 0  1 0.375 0  0 0.40625 0  0.03125 0.40625 0  0.0625 0.40625 0  0.09375 0.40625 0  0.125 0.40625 0  0.15625 0.40625 0  0.1875 0.40625 0  0.21875 0.40625 0  0.25 0.40625 0  0.28125 0.40625 0  0.3125 0.40625 0  0.34375 0.40625 0  0.375 0.40625 0  0.40625 0.40625 0  0.4375 0.40625 0  0.46875 0.40625 0  0.5 0.40625 0  0.53125 0.40625 0  0.5625 0.40625 0  0.59375 0.40625 0  0.625 0.40625 0  0.65625 0.40625 0  0.6875 0.40625 0  0.71875 0.40625 0  0.75 0.40625 0  0.78125 0.40625 0  0.8125 0.40625 0  0.84375 0.40625 0  0.875 0.40625 0  0.90625 0.40625 0  0.9375 0.40625 0  0.96875 0.40625 0  1 0.40625 0  0 0.4375 0  0.03125 0.4375 0  0.0625 0.4375 0  0.09375 0.4375 0  0.125 0.4375 0  0.15625 0.4375 0  0.1875 0.4375 0  0.21875 0.4375 0  0.25 0.4375 0  0.28125 0.4375 0  0.3125 0.4375 0  0.34375 0.4375 0  0.375 0.4375 0  0.40625 0.4375 0  0.4375 0.4375 0  0.46875 0.4375 0  0.5 0.4375 0  0.53125 0.4375 0  0.5625 0.4375 0  0.59375 0.4375 0  0.625 0.4375 0  0.65625 0.4375 0  0.6875 0.4375 0  0.71875 0.4375 0  0.75 0.4375 0  0.78125 0.4375 0  0.8125 0.4375 0  0.84375 0.4375 0  0.875 0.4375 0  0.90625 0.4375 0  0.9375 0.4375 0  0.96875 0.4375 0  1 0.4375 0  0 0.46875 0  0.03125 0.46875 0  0.0625 0.46875 0  0.09375 0.46875 0  0.125 0.46875 0  0.15625 0.46875 0  0.1875 0.46875 0  0.21875 0.46875 0  0.25 0.46875 0  0.28125 0.46875 0  0.3125 0.46875 0  0.34375 0.46875 0  0.375 0.46875 0  0.40625 0.46875 0  0.4375 0.46875 0  0.46875 0.46875 0  0.5 0.46875 0  0.53125 0.46875 0  0.5625 0.46875 0  0.59375 0.46875 0  0.625 0.46875 0  0.65625 0.46875 0  0.6875 0.46875 0  0.71875 0.46875 0  0.75 0.46875 0  0.78125 0.46875 0  0.8125 0.46875 0  0.84375 0.46875 0  0.875 0.46875 0  0.90625 0.46875 0  0.9375 0.46875 0  0.96875 0.46875 0  1 0.46875 0  0 0.5 0  0.03125 0.5 0  0.0625 0.5 0  0.09375 0.5 0  0.125 0.5 0  0.15625 0.5 0  0.1875 0.5 0  0.21875 0.5 0  0.25 0.5 0  0.28125 0.5 0  0.3125 0.5 0  0.34375 0.5 0  0.375 0.5 0  0.40625 0.5 0  0.4375 0.5 0  0.46875 0.5 0  0.5 0.5 0  0.53125 0.5 0  0.5625 0.5 0  0.59375 0.5 0  0.625 0.5 0  0.65625 0.5 0  0.6875 0.5 0  0.71875 0.5 0  0.75 0.5 0  0.78125 0.5 0  0.8125 0.5 0  0.84375 0.5 0  0.875 0.5 0  0.90625 0.5 0  0.9375 0.5 0  0.96875 0.5 0  1 0.5 0  0 0.53125 0  0.03125 0.53125 0  0.0625 0.53125 0  0.09375 0.53125 0  0.125 0.53125 0  0.15625 0.53125 0  0.1875 0.53125 0  0.21875 0.53125 0  0.25 0.53125 0  0.28125 0.53125 0  0.3125 0.53125 0  0.34375 0.53125 0  0.375 0.53125 0  0.40625 0.53125 0  0.4375 0.53125 0  0.46875 0.53125 0  0.5 0.53125 0  0.53125 0.53125 0  0.5625 0.53125 0  0.59375 0.53125 0  0.625 0.53125 0  0.65625 0.53125 0  0.6875 0.53125 0  0.71875 0.53125 0  0.75 0.53125 0  0.78125 0.531
[...]
<PointData  Scalars="f_277003"> 
<DataArray  type="Float64"  Name="f_277003"  format="ascii">0.0000000000000000e+00  0.0000000000000000e+00  0.0000000000000000e+00  0.0000000000000000e+00  0.0000000000000000e+00  0.0000000000000000e+00  0.0000000000000000e+00  0.0000000000000000e+00  0.0000000000000000e+00  0.0000000000000000e+00  0.0000000000000000e+00  0.0000000000000000e+00  0.0000000000000000e+00  0.0000000000000000e+00  0.0000000000000000e+00  0.0000000000000000e+00  0.0000000000000000e+00  0.0000000000000000e+00  0.0000000000000000e+00  0.0000000000000000e+00  0.0000000000000000e+00  0.0000000000000000e+00  0.0000000000000000e+00  0.0000000000000000e+00  0.0000000000000000e+00  0.0000000000000000e+00  0.0000000000000000e+00  0.0000000000000000e+00  0.0000000000000000e+00  0.0000000000000000e+00  0.0000000000000000e+00  0.0000000000000000e+00  0.0000000000000000e+00  0.0000000000000000e+00  1.8424533581120291e-02  3.6642372125916527e-02  5.4489892757351430e-02  7.1800859691045590e-02  8.8411716992665687e-02  1.0416449258485538e-01  1.1890886533532856e-01  1.3250386651787216e-01  1.4481936903712408e-01  1.5573741546996628e-01  1.6515340005887696e-01  1.7297710635708344e-01  1.7913359717754376e-01  1.8356395189698302e-01  1.8622584612029400e-01  1.8709396943035583e-01  1.8616027807674035e-01  1.8343408081998624e-01  1.7894195765670678e-01  1.7272751275953008e-01  1.6485096465907098e-01  1.5538857848671012e-01  1.4443194704514820e-01  1.3208712972116471e-01  1.1847366112662507e-01  1.0372344560318787e-01  8.7979561198387721e-02  7.1395012272803426e-02  5.4131507420184487e-02  3.6358442190392345e-02  1.8252581163569644e-02  0.0000000000000000e+00  0.0000000000000000e+00  3.6642372125916527e-02  7.2891687794414517e-02  1.0841064605335496e-01  1.4286468060379207e-01  1.7592691139932629e-01  2.0728234831470937e-01  2.3663151562575438e-01  2.6369366952567019e-01  2.8820969737465346e-01  3.0994473353498658e-01  3.2869049934504979e-01  3.4426736223309923e-01  3.5652610389994327e-01  3.6534938621477436e-01  3.7065290416369301e-01  3.7238621697148827e-01  3.7053325092532396e-01  3.6511247021803300e-01  3.5617671516171162e-01  3.4381271032423033e-01  3.2814024848092993e-01  3.0931105976391021e-01  2.8750737910709989e-01  2.6294022921126764e-01  2.3584744118599973e-01  2.0649144159516605e-01  1.7515684457252470e-01  1.4214790458795559e-01  1.0778591647880045e-01  7.2406706220488046e-02  3.6358442190392345e-02  0.0000000000000000e+00  0.0000000000000000e+00  5.4489892757351423e-02  1.0841064605335494e-01  1.6125288179635291e-01  2.1251517807799170e-01  2.6170940439797402e-01  3.0836597222161505e-01  3.5203877432030878e-01  3.9230976781374222e-01  4.2879319306328156e-01  4.6113941973956163e-01  4.8903840511665320e-01  5.1222274550264701e-01  5.3047030041661336e-01  5.4360636998468614e-01  5.5150540834504247e-01  5.5409225911774662e-01  5.5134290288248722e-01  5.4328471090515740e-01  5.2999620392801627e-01  5.1160631960269132e-01  4.8829319705424751e-01  4.6028249211084526e-01  4.2784524196084261e-01  3.9129530352773462e-01  3.5098639592349490e-01  3.0730878437236758e-01  2.6068565161807655e-01  2.1156921365291484e-01  1.6043664891321405e-01  1.0778591647880044e-01  5.4131507420184480e-02  0.0000000000000000e+00  0.0000000000000000e+00  7.1800859691045577e-02  1.4286468060379204e-01  2.1251517807799167e-01  2.8008838016436788e-01  3.4493903764302020e-01  4.0644704567452267e-01  4.6402364748202085e-01  5.1711730247527488e-01  5.6521915240005582e-01  6.0786803881111240e-01  6.4465503253356049e-01  6.7522743943586527e-01  6.9929225002463602e-01  7.1661900407757972e-01  7.2704204593150135e-01  7.3046215105947365e-01  7.2684751007254789e-01  7.1623406214037033e-01  6.9872517593667582e-01  6.7449068249729549e-01  6.4376527076923873e-01  6.0684626309120226e-01  5.6409079436431853e-01  5.1591242525706804e-01  4.6277722646102132e-01  4.0519937774795789e-01  3.4373633210784899e-01  2.7898360051712368e-01  2.1156921365291481e-01  1.4214790458795556e-01  7.1395012272803399e-02  0.0000000000000000e+00  0.0000000000000000e+00  8.8411716992665673e-02  1.7592691139932626e-01  2.6170940439797397e-01  3.4493903764302020e-01  4.2481943081358908e-01  5.0058568014115090e-01  5.7151182442167259e-01  6.3691795165851806e-01  6.9617685406634733e-01  7.4872015991633467e-01  7.9404388293687089e-01  8.3171333814663861e-01  8.6136737962588295e-01  8.8272192203790489e-01  8.9557271419151951e-01  8.9979733974030918e-01  8.9535642725061404e-01  8.8229405928269056e-01  8.6073737774387382e-01  8.3089539051129457e-01  7.9305699211011427e-01  7.4758821900058070e-01  6.9492876770188772e-01  6.3558781147569821e-01  5.7013915846726404e-01  4.9921580077780192e-01  4.2350390931190546e-01  3.4373633210784893e-01  2.6068565161807650e-01  1.7515684457252462e-01  8.7979561198387679e-02  0.0000000000000000e+00  0.0000000000000000e+00  1.0416449258485537e-01  2.0728234831470935e-01  3.0836597222161505e-01  4.0644704567452267e-01  5.0058568014115090e-01  5.8987941801014965e-01  6.7347194409006383e-01  7.5056138629689817e-01  8.2040810305273348e-01  8.8234187094964223e-01  9.3576839864467520e-01  9.8017510292440968e-01  1.0151360916114915e+00  1.0403163062768490e+00  1.0554747860005711e+00  1.0604670218822667e+00  1.0552463806902861e+00  1.0398645849370254e+00  1.0144712457158866e+00  9.7931245375694220e-01  9.3472844326525495e-01  8.8115035210104331e-01  8.1909611063162491e-01  7.4916549998620097e-01  6.7203442826443016e-01  5.8844848014845652e-01  4.9921580077780175e-01  4.0519937774795772e-01  3.0730878437236742e-01  2.0649144159516591e-01  1.0372344560318780e-01  0.0000000000000000e+00  0.0000000000000000e+00  1.1890886533532855e-01  2.3663151562575435e-01  3.5203877432030872e-01  4.6402364748202080e-01  5.7151182442167248e-01  6.7347194409006383e-01  7.6892550595128850e-01  8.5695630750423235e-01  9.3671930075167986e-01  1.0074487715401004e+00  1.0684657568513245e+00  1.1191846255141285e+00  1.1591187576775155e+00  1.1878852680734073e+00  1.2052087278267751e+00  1.2109238494669641e+00  1.2049771098892874e+00  1.1874272962867387e+00  1.1584449704571951e+00  1.1183108573079079e+00  1.0674131737264059e+00  1.0062439241498697e+00  9.3539419900851994e-01  8.5554852157617833e-01  7.6747829741576001e-01  6.7203442826442994e-01  5.7013915846726371e-01  4.6277722646102099e-01  3.5098639592349462e-01  2.3584744118599951e-01  1.1847366112662495e-01  0.0000000000000000e+00  0.0000000000000000e+00  1.3250386651787216e-01  2.6369366952567019e-01  3.9230976781374216e-01  5.1711730247527488e-01  6.3691795165851794e-01  7.5056138629689806e-01  8.5695630750423224e-01  9.5508094706439528e-01  1.0439929186932344e+00  1.1228383166896585e+00  1.1908599685816008e+00  1.2474047587113228e+00  1.2919299502010522e+00  1.3240084434010535e+00  1.3433329197949135e+00  1.3497188314456641e+00  1.3431062073981570e+00  1.3235602599598126e+00  1.2912707853884140e+00  1.2465503651265561e+00  1.1898313852262070e+00  1.1216619028770463e+00  1.0427003998454842e+00  9.5370947298254993e-01  8.5554852157617811e-01  7.4916549998620052e-01  6.3558781147569765e-01  5.1591242525706760e-01  3.9129530352773423e-01  2.6294022921126736e-01  1.3208712972116457e-01  0.0000000000000000e+00  0.0000000000000000e+00  1.4481936903712411e-01  2.8820969737465352e-01  4.2879319306328156e-01  5.6521915240005582e-01  6.9617685406634711e-01  8.2040810305273326e-01  9.3671930075167964e-01  1.0439929186932344e+00  1.1411982584608928e+00  1.2274013880453971e+00  1.3017741542175147e+00  1.3636021807820935e+00  1.4122917734844191e+00  1.4473756637229735e+00  1.4685175350033013e+00  1.4755152881887157e+00  1.4683030140014925e+00  1.4469516538243234e+00  1.4116683425512817e+00  1.3627944399309573e+00  1.3008022694098096e+00  1.2262905957877293e+00  1.1399788848959880e+00  1.0427003998454840e+00  9.3539419900851939e-01  8.1909611063162424e-01  6.9492876770188694e-01  5.6409079436431786e-01  4.2784524196084212e-01  2.8750737910709956e-01  1.4443194704514800e-01  0.0000000000000000e+00  0.0000000000000000e+00  1.5573741546996631e-01  3.0994473353498664e-01  4.6113941973956168e-01  6.0786803881111229e-01  7.4872015991633456e-01  8.8234187094964200e-01  1.0074487715401002e+00  1.1228383166896585e+00  1.2274013880453971e+00  1.3201329772177270e+00  1.4001418746781114e+00  1.4666592681245860e+00  1.5190461654662744e+00  1.5567995695398646e+00  1.5795573441893538e+00  1.5871017243033239e+00  1.5793614357078192e+00  1.5564124043506207e+00  1.5184770478698990e+00  1.4659221562936313e+00  1.3992553821345273e+00  1.3191203733902872e+00  1.2262905957877290e+00  1.1216619028770458e+00  1.0062439241498691e+00  8.8115035210104253e-01  7.4758821900057992e-01  6.0684626309120149e-01  4.6028249211084465e-01  3.0931105976390982e-01  1.5538857848670989e-01  0.0000000000000000e+00  0.0000000000000000e+00  1.6515340005887699e-01  3.2869049934504979e-01  4.8903840511665320e-01  6.4465503253356049e-01  7.9404388293687089e-01  9.3576839864467520e-01  1.0684657568513247e+00  1.1908599685816013e+00  1.3017741542175152e+00  1.4001418746781118e+00  1.4850174065559569e+00  1.5555848600668891e+00  1.6111660502784630e+00  1.6512270445343342e+00  1.6753833221183130e+00  1.6834034958605861e+00  1.6752115594487436e+00  1.6508876385392708e+00  1.6106672382401368e+00  1.5549389940168499e+00  1.4842409474234963e+00  1.3992553821345270e+00  1.3008022694098094e+00  1.1898313852262066e+00  1.0674131737264052e+00  9.3472844326525417e-01  7.9305699211011338e-01  6.4376527076923795e-01  4.8829319705424684e-01  3.2814024848092949e-01  1.6485096465907076e-01  0.0000000000000000e+00  0.0000000000000000e+00  1.7297710635708344e-01  3.4426736223309923e-01  5.1222274550264713e-01  6.7522743943586538e-01  8.3171333814663884e-01  9.8017510292441012e-01  1.1191846255141291e+00  1.2474047587113235e+00  1.3636021807820944e+00  1.4666592681245867e+00  1.5555848600668896e+00  1.6295238105175955e+00  1.6877652331289947e+00  1.7297493595028794e+00  1.7550729435928214e+00  1.7634931596789329e+00  1.7549299559651665e+00  1.7294668408322702e+00  1.6873500939285757e+00  1.6289864094512965e+00  1.5549389940168497e+00  1.4659221562936311e+00  1.3627944399309571e+00  1.2465503651265559e+00  1.1183108573079075e+00  9.7931245375694165e-01  8.3089539051129391e-01  6.7449068249729471e-01  5.1160631960269076e-01  3.4381271032422989e-01  1.7272751275952986e-01  0.0000000000000000e+00  0.0000000000000000e+00  1.7913359717754374e-01  3.5652610389994327e-01  5.3047030041661347e-01  6.9929225002463624e-01  8.6136737962588339e-01  1.0151360916114922e+00  1.1591187576775162e+00  1.2919299502010531e+00  1.4122917734844203e+00  1.5190461654662752e+00  1.6111660502784639e+00  1.6877652331289952e+00  1.7481069412361092e+00  1.7916109277509187e+00  1.8178590696203760e+00  1.8265994050001091e+00  1.8177485709747627e+00  1.7913926178308754e+00  1.7477861918032096e+00  1.6873500939285755e+00  1.6106672382401366e+00  1.5184770478698988e+00  1.4116683425512815e+00  1.2912707853884136e+00  1.1584449704571946e+00  1.0144712457158864e+00  8.6073737774387338e-01  6.9872517593667527e-01  5.2999620392801583e-01  3.5617671516171129e-01  1.7894195765670662e-01  0.0000000000000000e+00  0.0000000000000000e+00  1.8356395189698299e-01  3.6534938621477436e-01  5.4360636998468614e-01  7.1661900407757984e-01  8.8272192203790512e-01  1.0403163062768497e+00  1.1878852680734080e+00  1.3240084434010546e+00  1.4473756637229747e+00  1.5567995695398658e+00  1.6512270445343353e+00  1.7297493595028801e+00  1.7916109277509189e+00  1.8362165870929694e+00  1.8631373378929275e+00  1.8721144815435864e+00  1.8630621192658452e+00  1.8360679869521681e+00  1.7913926178308752e+00  1.7294668408322698e+00  1.6508876385392703e+00  1.5564124043506204e+00  1.4469516538243232e+00  1.3235602599598124e+00  1.1874272962867385e+00  1.0398645849370249e+00  8.8229405928269022e-01  7.1623406214036989e-01  5.4328471090515706e-01  3.6511247021803273e-01  1.8343408081998608e-01  0.0000000000000000e+00  0.0000000000000000e+00  1.8622584612029391e-01  3.7065290416369290e-01  5.5150540834504236e-01  7.2704204593150135e-01  8.9557271419151963e-01  1.0554747860005713e+00  1.2052087278267756e+00  1.3433329197949142e+00  1.4685175350033020e+00  1.5795573441893547e+00  1.6753833221183139e+00  1.7550729435928223e+00  1.8178590696203765e+00  1.8631373378929275e+00  1.8904719861838879e+00  1.8996000524042942e+00  1.8904339107304402e+00  1.8630621192658448e+00  1.8177485709747621e+00  1.7549299559651657e+00  1.6752115594487429e+00  1.5793614357078187e+00  1.4683030140014921e+00  1.3431062073981568e+00  1.2049771098892872e+00  1.0552463806902859e+00  8.9535642725061371e-01  7.2684751007254755e-01  5.5134290288248688e-01  3.7053325092532369e-01  1.8616027807674018e-01  0.0000000000000000e+00  0.0000000000000000e+00  1.8709396943035572e-01  3.7238621697148805e-01  5.5409225911774629e-01  7.3046215105947321e-01  8.9979733974030884e-01  1.0604670218822667e+00  1.2109238494669643e+00  1.3497188314456643e+00  1.4755152881887161e+00  1.5871017243033245e+00  1.6834034958605868e+00  1.7634931596789336e+00  1.8265994050001093e+00  1.8721144815435864e+00  1.8996000524042942e+00  1.9087914154271959e+00  1.8996000524042935e+00  1.8721144815435853e+00  1.8265994050001078e+00  1.7634931596789318e+00  1.6834034958605850e+00  1.5871017243033230e+00  1.4755152881887152e+00  1.3497188314456636e+00  1.2109238494669639e+00  1.0604670218822665e+00  8.9979733974030895e-01  7.3046215105947332e-01  5.5409225911774629e-01  3.7238621697148799e-01  1.8709396943035569e-01  0.0000000000000000e+00  0.0000000000000000e+00  1.8616027807674018e-01  3.7053325092532369e-01  5.5134290288248677e-01  7.2684751007254733e-01  8.9535642725061348e-01  1.0552463806902856e+00  1.2049771098892870e+00  1.3431062073981568e+00  1.4683030140014923e+00  1.5793614357078190e+00  1.6752115594487436e+00  1.7549299559651663e+00  1.8177485709747623e+00  1.8630621192658448e+00  1.8904339107304398e+00  1.8996000524042933e+00  1.8904719861838866e+00  1.8631373378929255e+00  1.8178590696203740e+00  1.7550729435928196e+00  1.6753833221183112e+00  1.5795573441893525e+00  1.4685175350033002e+00  1.3433329197949129e+00  1.2052087278267747e+00  1.0554747860005709e+00  8.9557271419151940e-01  7.2704204593150124e-01  5.5150540834504225e-01  3.7065290416369279e-01  1.8622584612029386e-01  0.0000000000000000e+00  0.0000000000000000e+00  1.8343408081998608e-01  3.6511247021803273e-01  5.4328471090515695e-01  7.1623406214036978e-01  8.8229405928268989e-01  1.0398645849370247e+00  1.1874272962867383e+00  1.3235602599598122e+00  1.4469516538243228e+00  1.5564124043506200e+00  1.6508876385392699e+00  1.7294668408322691e+00  1.7913926178308741e+00  1.8360679869521670e+00  1.8630621192658441e+00  1.8721144815435848e+00  1.8631373378929252e+00  1.8362165870929668e+00  1.7916109277509160e+00  1.7297493595028768e+00  1.6512270445343320e+00  1.5567995695398631e+00  1.4473756637229722e+00  1.3240084434010526e+00  1.1878852680734067e+00  1.0403163062768488e+00  8.8272192203790467e-01  7.1661900407757950e-01  5.4360636998468592e-01  3.6534938621477420e-01  1.8356395189698288e-01  0.0000000000000000e+00  0.0000000000000000e+00  1.7894195765670665e-01  3.5617671516171140e-01  5.2999620392801583e-01  6.9872517593667538e-01  8.6073737774387316e-01  1.0144712457158862e+00  1.1584449704571944e+00  1.2912707853884131e+00  1.4116683425512806e+00  1.5184770478698977e+00  1.6106672382401352e+00  1.6873500939285739e+00  1.7477861918032076e+00  1.7913926178308732e+00  1.8177485709747605e+00  1.8265994050001066e+00  1.8178590696203734e+00  1.7916109277509156e+00  1.7481069412361059e+00  1.6877652331289916e+00  1.6111660502784606e+00  1.5190461654662721e+00  1.4122917734844176e+00  1.2919299502010511e+00  1.1591187576775146e+00  1.0151360916114911e+00  8.6136737962588272e-01  6.9929225002463591e-01  5.3047030041661314e-01  3.5652610389994310e-01  1.7913359717754362e-01  0.0000000000000000e+00  0.0000000000000000e+00  1.7272751275952994e-01  3.4381271032423011e-01  5.1160631960269098e-01  6.7449068249729494e-01  8.3089539051129402e-01  9.7931245375694154e-01  1.1183108573079070e+00  1.2465503651265550e+00  1.3627944399309559e+00  1.4659221562936293e+00  1.5549389940168477e+00  1.6289864094512940e+00  1.6873500939285728e+00  1.7294668408322671e+00  1.7549299559651634e+00  1.7634931596789301e+00  1.7550729435928185e+00  1.7297493595028761e+00  1.6877652331289914e+00  1.6295238105175920e+00  1.5555848600668860e+00  1.4666592681245836e+00  1.3636021807820917e+00  1.2474047587113215e+00  1.1191846255141276e+00  9.8017510292440901e-01  8.3171333814663817e-01  6.7522743943586494e-01  5.1222274550264679e-01  3.4426736223309901e-01  1.7297710635708333e-01  0.0000000000000000e+00  0.0000000000000000e+00  1.6485096465907090e-01  3.2814024848092971e-01  4.8829319705424717e-01  6.4376527076923828e-01  7.9305699211011360e-01  9.3472844326525428e-01  1.0674131737264050e+00  1.1898313852262059e+00  1.3008022694098080e+00  1.3992553821345253e+00  1.4842409474234939e+00  1.5549389940168470e+00  1.6106672382401337e+00  1.6508876385392672e+00  1.6752115594487402e+00  1.6834034958605830e+00  1.6753833221183099e+00  1.6512270445343311e+00  1.6111660502784599e+00  1.5555848600668858e+00  1.4850174065559538e+00  1.4001418746781089e+00  1.3017741542175127e+00  1.1908599685815993e+00  1.0684657568513232e+00  9.3576839864467420e-01  7.9404388293687012e-01  6.4465503253355994e-01  4.8903840511665281e-01  3.2869049934504951e-01  1.6515340005887685e-01  0.0000000000000000e+00  0.0000000000000000e+00  1.5538857848671003e-01  3.0931105976391005e-01  4.6028249211084499e-01  6.0684626309120193e-01  7.4758821900058026e-01  8.8115035210104253e-01  1.0062439241498686e+00  1.1216619028770451e+00  1.2262905957877279e+00  1.3191203733902854e+00  1.3992553821345246e+00  1.4659221562936282e+00  1.5184770478698955e+00  1.5564124043506171e+00  1.5793614357078156e+00  1.5871017243033205e+00  1.5795573441893505e+00  1.5567995695398615e+00  1.5190461654662712e+00  1.4666592681245831e+00  1.4001418746781087e+00  1.3201329772177246e+00  1.2274013880453951e+00  1.1228383166896567e+00  1.0074487715400988e+00  8.8234187094964101e-01  7.4872015991633378e-01  6.0786803881111173e-01  4.6113941973956118e-01  3.0994473353498631e-01  1.5573741546996614e-01  0.0000000000000000e+00  0.0000000000000000e+00  1.4443194704514814e-01  2.8750737910709978e-01  4.2784524196084239e-01  5.6409079436431819e-01  6.9492876770188716e-01  8.1909611063162424e-01  9.3539419900851906e-01  1.0427003998454831e+00  1.1399788848959869e+00  1.2262905957877275e+00  1.3008022694098071e+00  1.3627944399309542e+00  1.4116683425512782e+00  1.4469516538243197e+00  1.4683030140014888e+00  1.4755152881887121e+00  1.4685175350032977e+00  1.4473756637229704e+00  1.4122917734844163e+00  1.3636021807820908e+00  1.3017741542175123e+00  1.2274013880453949e+00  1.1411982584608911e+00  1.0439929186932326e+00  9.3671930075167831e-01  8.2040810305273215e-01  6.9617685406634633e-01  5.6521915240005516e-01  4.2879319306328106e-01  2.8820969737465318e-01  1.4481936903712395e-01  0.0000000000000000e+00  0.0000000000000000e+00  1.3208712972116465e-01  2.6294022921126753e-01  3.9129530352773445e-01  5.1591242525706771e-01  6.3558781147569776e-01  7.4916549998620041e-01  8.5554852157617756e-01  9.5370947298254904e-01  1.0427003998454829e+00  1.1216619028770445e+00  1.1898313852262046e+00  1.2465503651265533e+00  1.2912707853884104e+00  1.3235602599598089e+00  1.3431062073981530e+00  1.3497188314456605e+00  1.3433329197949102e+00  1.3240084434010506e+00  1.2919299502010495e+00  1.2474047587113204e+00  1.1908599685815986e+00  1.1228383166896565e+00  1.0439929186932326e+00  9.5508094706439361e-01  8.5695630750423091e-01  7.5056138629689695e-01  6.3691795165851717e-01  5.1711730247527421e-01  3.9230976781374166e-01  2.6369366952566986e-01  1.3250386651787199e-01  0.0000000000000000e+00  0.0000000000000000e+00  1.1847366112662500e-01  2.3584744118599957e-01  3.5098639592349468e-01  4.627772264