<?xml version="1.0"?>
<VTKFile type="UnstructuredGrid"  version="0.1"  >
<UnstructuredGrid>
<Piece  NumberOfPoints="1089" NumberOfCells="2048">
<Points>
<DataArray  type="Float64"  NumberOfComponents="3"  format="ascii">0 0 0  0.03125 0 0  0.0625 0 0  0.09375 0 0  0.125 0 0  0.15625 0 0  0.1875 0 0  0.21875 0 0  0.25 0 0  0.28125 0 0  0.3125 0 0  0.34375 0 0  0.375 0 0  0.40625 0 0  0.4375 0 0  0.46875 0 0  0.5 0 0  0.53125 0 0  0.5625 0 0  0.59375 0 0  0.625 0 0  0.65625 0 0  0.6875 0 0  0.71875 0 0  0.75 0 0  0.78125 0 0  0.8125 0 0  0.84375 0 0  0.875 0 0  0.90625 0 0  0.9375 0 0  0.96875 0 0  1 0 0  0 0.03125 0  0.03125 0.03125 0  0.0625 0.03125 0  0.09375 0.03125 0  0.125 0.03125 0  0.15625 0.03125 0  0.1875 0.03125 0  0.21875 0.03125 0  0.25 0.03125 0  0.28125 0.03125 0  0.3125 0.03125 0  0.34375 0.03125 0  0.375 0.03125 0  0.40625 0.03125 0  0.4375 0.03125 0  0.46875 0.03125 0  0.5 0.03125 0  0.53125 0.03125 0  0.5625 0.03125 0  0.59375 0.03125 0  0.625 0.03125 0  0.65625 0.03125 0  0.6875 0.03125 0  0.71875 0.03125 0  0.75 0.03125 0  0.78125 0.03125 0  0.8125 0.03125 0  0.84375 0.03125 0  0.875 0.03125 0  0.90625 0.03125 0  0.9375 0.03125 0  0.96875 0.03125 0  1 0.03125 0  0 0.0625 0  0.03125 0.0625 0  0.0625 0.0625 0  0.09375 0.0625 0  0.125 0.0625 0  0.15625 0.0625 0  0.1875 0.0625 0  0.21875 0.0625 0  0.25 0.0625 0  0.28125 0.0625 0  0.3125 0.0625 0  0.34375 0.0625 0  0.375 0.0625 0  0.40625 0.0625 0  0.4375 0.0625 0  0.46875 0.0625 0  0.5 0.0625 0  0.53125 0.0625 0  0.5625 0.0625 0  0.59375 0.0625 0  0.625 0.0625 0  0.65625 0.0625 0  0.6875 0.0625 0  0.71875 0.0625 0  0.75 0.0625 0  0.78125 0.0625 0  0.8125 0.0625 0  0.84375 0.0625 0  0.875 0.0625 0  0.90625 0.0625 0  0.9375 0.0625 0  0.96875 0.0625 0  1 0.0625 0  0 0.09375 0  0.03125 0.09375 0  0.0625 0.09375 0  0.09375 0.09375 0  0.125 0.09375 0  0.15625 0.09375 0  0.1875 0.09375 0  0.21875 0.09375 0  0.25 0.09375 0  0.28125 0.09375 0  0.3125 0.09375 0  0.34375 0.09375 0  0.375 0.09375 0  0.40625 0.09375 0  0.4375 0.09375 0  0.46875 0.09375 0  0.5 0.09375 0  0.53125 0.09375 0  0.5625 0.09375 0  0.59375 0.09375 0  0.625 0.09375 0  0.65625 0.09375 0  0.6875 0.09375 0  0.71875 0.09375 0  0.75 0.09375 0  0.78125 0.09375 0  0.8125 0.09375 0  0.84375 0.09375 0  0.875 0.09375 0  0.90625 0.09375 0  0.9375 0.09375 0  0.96875 0.09375 0  1 0.09375 0  0 0.125 0  0.03125 0.125 0  0.0625 0.125 0  0.09375 0.125 0  0.125 0.125 0  0.15625 0.125 0  0.1875 0.125 0  0.21875 0.125 0  0.25 0.125 0  0.28125 0.125 0  0.3125 0.125 0  0.34375 0.125 0  0.375 0.125 0  0.40625 0.125 0  0.4375 0.125 0  0.46875 0.125 0  0.5 0.125 0  0.53125 0.125 0  0.5625 0.125 0  0.59375 0.125 0  0.625 0.125 0  0.65625 0.125 0  0.6875 0.125 0  0.71875 0.125 0  0.75 0.125 0  0.78125 0.125 0  0.8125 0.125 0  0.84375 0.125 0  0.875 0.125 0  0.90625 0.125 0  0.9375 0.125 0  0.96875 0.125 0  1 0.125 0  0 0.15625 0  0.03125 0.15625 0  0.0625 0.15625 0  0.09375 0.15625 0  0.125 0.15625 0  0.15625 0.15625 0  0.1875 0.15625 0  0.21875 0.15625 0  0.25 0.15625 0  0.28125 0.15625 0  0.3125 0.15625 0  0.34375 0.15625 0  0.375 0.15625 0  0.40625 0.15625 0  0.4375 0.15625 0  0.46875 0.15625 0  0.5 0.15625 0  0.53125 0.15625 0  0.5625 0.15625 0  0.59375 0.15625 0  0.625 0.15625 0  0.65625 0.15625 0  0.6875 0.15625 0  0.71875 0.15625 0  0.75 0.15625 0  0.78125 0.15625 0  0.8125 0.15625 0  0.84375 0.15625 0  0.875 0.15625 0  0.90625 0.15625 0  0.9375 0.15625 0  0.96875 0.15625 0  1 0.15625 0  0 0.1875 0  0.03125 0.1875 0  0.0625 0.1875 0  0.09375 0.1875 0  0.125 0.1875 0  0.15625 0.1875 0  0.1875 0.1875 0  0.21875 0.1875 0  0.25 0.1875 0  0.28125 0.1875 0  0.3125 0.1875 0  0.34375 0.1875 0  0.375 0.1875 0  0.40625 0.1875 0  0.4375 0.1875 0  0.46875 0.1875 0  0.5 0.1875 0  0.53125 0.1875 0  0.5625 0.1875 0  0.59375 0.1875 0  0.625 0.1875 0  0.65625 0.1875 0  0.6875 0.1875 0  0.71875 0.1875 0  0.75 0.1875 0  0.78125 0.1875 0  0.8125 0.1875 0  0.84375 0.1875 0  0.875 0.1875 0  0.90625 0.1875 0  0.9375 0.1875 0  0.96875 0.1875 0  1 0.1875 0  0 0.21875 0  0.03125 0.21875 0  0.0625 0.21875 0  0.09375 0.21875 0  0.125 0.21875 0  0.15625 0.21875 0  0.1875 0.21875 0  0.21875 0.21875 0  0.25 0.21875 0  0.28125 0.21875 0  0.3125 0.21875 0  0.34375 0.21875 0  0.375 0.21875 0  0.40625 0.21875 0  0.4375 0.21875 0  0.46875 0.21875 0  0.5 0.21875 0  0.53125 0.21875 0  0.5625 0.21875 0  0.59375 0.21875 0  0.625 0.21875 0  0.65625 0.21875 0  0.6875 0.21875 0  0.71875 0.21875 0  0.75 0.21875 0  0.78125 0.21875 0  0.8125 0.21875 0  0.84375 0.21875 0  0.875 0.21875 0  0.90625 0.21875 0  0.9375 0.21875 0  0.96875 0.21875 0  1 0.21875 0  0 0.25 0  0.03125 0.25 0  0.0625 0.25 0  0.09375 0.25 0  0.125 0.25 0  0.15625 0.25 0  0.1875 0.25 0  0.21875 0.25 0  0.25 0.25 0  0.28125 0.25 0  0.3125 0.25 0  0.34375 0.25 0  0.375 0.25 0  0.40625 0.25 0  0.4375 0.25 0  0.46875 0.25 0  0.5 0.25 0  0.53125 0.25 0  0.5625 0.25 0  0.59375 0.25 0  0.625 0.25 0  0.65625 0.25 0  0.6875 0.25 0  0.71875 0.25 0  0.75 0.25 0  0.78125 0.25 0  0.8125 0.25 0  0.84375 0.25 0  0.875 0.25 0  0.90625 0.25 0  0.9375 0.25 0  0.96875 0.25 0  1 0.25 0  0 0.28125 0  0.03125 0.28125 0  0.0625 0.28125 0  0.09375 0.28125 0  0.125 0.28125 0  0.15625 0.28125 0  0.1875 0.28125 0  0.21875 0.28125 0  0.25 0.28125 0  0.28125 0.28125 0  0.3125 0.28125 0  0.34375 0.28125 0  0.375 0.28125 0  0.40625 0.28125 0  0.4375 0.28125 0  0.46875 0.28125 0  0.5 0.28125 0  0.53125 0.28125 0  0.5625 0.28125 0  0.59375 0.28125 0  0.625 0.28125 0  0.65625 0.28125 0  0.6875 0.28125 0  0.71875 0.28125 0  0.75 0.28125 0  0.78125 0.28125 0  0.8125 0.28125 0  0.84375 0.28125 0  0.875 0.28125 0  0.90625 0.28125 0  0.9375 0.28125 0  0.96875 0.28125 0  1 0.28125 0  0 0.3125 0  0.03125 0.3125 0  0.0625 0.3125 0  0.09375 0.3125 0  0.125 0.3125 0  0.15625 0.3125 0  0.1875 0.3125 0  0.21875 0.3125 0  0.25 0.3125 0  0.28125 0.3125 0  0.3125 0.3125 0  0.34375 0.3125 0  0.375 0.3125 0  0.40625 0.3125 0  0.4375 0.3125 0  0.46875 0.3125 0  0.5 0.3125 0  0.53125 0.3125 0  0.5625 0.3125 0  0.59375 0.3125 0  0.625 0.3125 0  0.65625 0.3125 0  0.6875 0.3125 0  0.71875 0.3125 0  0.75 0.3125 0  0.78125 0.3125 0  0.8125 0.3125 0  0.84375 0.3125 0  0.875 0.3125 0  0.90625 0.3125 0  0.9375 0.3125 0  0.96875 0.3125 0  1 0.3125 0  0 0.34375 0  0.03125 0.34375 0  0.0625 0.34375 0  0.09375 0.34375 0  0.125 0.34375 0  0.15625 0.34375 0  0.1875 0.34375 0  0.21875 0.34375 0  0.25 0.34375 0  0.28125 0.34375 0  0.3125 0.34375 0  0.34375 0.34375 0  0.375 0.34375 0  0.40625 0.34375 0  0.4375 0.34375 0  0.46875 0.34375 0  0.5 0.34375 0  0.53125 0.34375 0  0.5625 0.34375 0  0.59375 0.34375 0  0.625 0.34375 0  0.65625 0.34375 0  0.6875 0.34375 0  0.71875 0.34375 0  0.75 0.34375 0  0.78125 0.34375 0  0.8125 0.34375 0  0.84375 0.34375 0  0.875 0.34375 0  0.90625 0.34375 0  0.9375 0.34375 0  0.96875 0.34375 0  1 0.34375 0  0 0.375 0  0.03125 0.375 0  0.0625 0.375 0  0.09375 0.375 0  0.125 0.375 0  0.15625 0.375 0  0.1875 0.375 0  0.21875 0.375 0  0.25 0.375 0  0.28125 0.375 0  0.3125 0.375 0  0.34375 0.375 0  0.375 0.375 0  0.40625 0.375 0  0.4375 0.375 0  0.46875 0.375 0  0.5 0.375 0  0.53125 0.375 0  0.5625 0.375 0  0.59375 0.375 0  0.625 0.375 0  0.65625 0.375 0  0.6875 0.375 0  0.71875 0.375 0  0.75 0.375 0  0.78125 0.375 0  0.8125 0.375 0  0.84375 0.375 0  0.875 0.375 0  0.90625 0.375 0  0.9375 0.375 0  0.96875 0.375 0  1 0.375 0  0 0.40625 0  0.03125 0.40625 0  0.0625 0.40625 0  0.09375 0.40625 0  0.125 0.40625 0  0.15625 0.40625 0  0.1875 0.40625 0  0.21875 0.40625 0  0.25 0.40625 0  0.28125 0.40625 0  0.3125 0.40625 0  0.34375 0.40625 0  0.375 0.40625 0  0.40625 0.40625 0  0.4375 0.40625 0  0.46875 0.40625 0  0.5 0.40625 0  0.53125 0.40625 0  0.5625 0.40625 0  0.59375 0.40625 0  0.625 0.40625 0  0.65625 0.40625 0  0.6875 0.40625 0  0.71875 0.40625 0  0.75 0.40625 0  0.78125 0.40625 0  0.8125 0.40625 0  0.84375 0.40625 0  0.875 0.40625 0  0.90625 0.40625 0  0.9375 0.40625 0  0.96875 0.40625 0  1 0.40625 0  0 0.4375 0  0.03125 0.4375 0  0.0625 0.4375 0  0.09375 0.4375 0  0.125 0.4375 0  0.15625 0.4375 0  0.1875 0.4375 0  0.21875 0.4375 0  0.25 0.4375 0  0.28125 0.4375 0  0.3125 0.4375 0  0.34375 0.4375 0  0.375 0.4375 0  0.40625 0.4375 0  0.4375 0.4375 0  0.46875 0.4375 0  0.5 0.4375 0  0.53125 0.4375 0  0.5625 0.4375 0  0.59375 0.4375 0  0.625 0.4375 0  0.65625 0.4375 0  0.6875 0.4375 0  0.71875 0.4375 0  0.75 0.4375 0  0.78125 0.4375 0  0.8125 0.4375 0  0.84375 0.4375 0  0.875 0.4375 0  0.90625 0.4375 0  0.9375 0.4375 0  0.96875 0.4375 0  1 0.4375 0  0 0.46875 0  0.03125 0.46875 0  0.0625 0.46875 0  0.09375 0.46875 0  0.125 0.46875 0  0.15625 0.46875 0  0.1875 0.46875 0  0.21875 0.46875 0  0.25 0.46875 0  0.28125 0.46875 0  0.3125 0.46875 0  0.34375 0.46875 0  0.375 0.46875 0  0.40625 0.46875 0  0.4375 0.46875 0  0.46875 0.46875 0  0.5 0.46875 0  0.53125 0.46875 0  0.5625 0.46875 0  0.59375 0.46875 0  0.625 0.46875 0  0.65625 0.46875 0  0.6875 0.46875 0  0.71875 0.46875 0  0.75 0.46875 0  0.78125 0.46875 0  0.8125 0.46875 0  0.84375 0.46875 0  0.875 0.46875 0  0.90625 0.46875 0  0.9375 0.46875 0  0.96875 0.46875 0  1 0.46875 0  0 0.5 0  0.03125 0.5 0  0.0625 0.5 0  0.09375 0.5 0  0.125 0.5 0  0.15625 0.5 0  0.1875 0.5 0  0.21875 0.5 0  0.25 0.5 0  0.28125 0.5 0  0.3125 0.5 0  0.34375 0.5 0  0.375 0.5 0  0.40625 0.5 0  0.4375 0.5 0  0.46875 0.5 0  0.5 0.5 0  0.53125 0.5 0  0.5625 0.5 0  0.59375 0.5 0  0.625 0.5 0  0.65625 0.5 0  0.6875 0.5 0  0.71875 0.5 0  0.75 0.5 0  0.78125 0.5 0  0.8125 0.5 0  0.84375 0.5 0  0.875 0.5 0  0.90625 0.5 0  0.9375 0.5 0  0.96875 0.5 0  1 0.5 0  0 0.53125 0  0.03125 0.53125 0  0.0625 0.53125 0  0.09375 0.53125 0  0.125 0.53125 0  0.15625 0.53125 0  0.1875 0.53125 0  0.21875 0.53125 0  0.25 0.53125 0  0.28125 0.53125 0  0.3125 0.53125 0  0.34375 0.53125 0  0.375 0.53125 0  0.40625 0.53125 0  0.4375 0.53125 0  0.46875 0.53125 0  0.5 0.53125 0  0.53125 0.53125 0  0.5625 0.53125 0  0.59375 0.53125 0  0.625 0.53125 0  0.65625 0.53125 0  0.6875 0.53125 0  0.71875 0.53125 0  0.75 0.53125 0  0.78125 0.531
[...]
<PointData  Scalars="theta"> 
<DataArray  type="Float64"  Name="theta"  format="ascii">-1.2583353269998031e-07  1.1061125803008159e-07  1.9649940755594106e-07  5.5597211481037253e-08  -1.0626085430584312e-07  -4.8101589076876167e-07  -4.9766809998613219e-07  8.6209275250312681e-18  8.4518078997662492e-07  4.0935160279122562e-08  3.1750632116746565e-07  1.3834190129813733e-07  -3.8833858467815506e-07  -7.3709841459068202e-08  -8.9411852050422452e-07  -1.9070950031683900e-06  -6.3165845824101263e-07  -6.4896269591548617e-07  -2.1502620566654601e-07  6.4896269594096979e-07  2.5720120433263135e-07  1.9070950031934688e-06  9.4207264356372046e-07  3.3404635512923358e-07  1.6703308483996882e-06  9.5730306535158276e-07  5.5215247386159032e-07  8.4405133297278495e-08  4.0516322923687321e-07  3.1269726698050186e-07  2.3857240589772489e-07  1.9447962650164279e-07  1.7095312899327964e-07  -2.5483666685754600e-07  -1.1791931169954711e-07  1.0371098026283530e-07  1.8375536008580897e-07  5.1991432150025269e-08  -9.9631968389946577e-08  -4.5076269845522487e-07  -4.6427690928380975e-07  8.0826036733936972e-18  8.1008415397655264e-07  0.0000000000000000e+00  2.8820715703226097e-07  1.2921096838648596e-07  -3.7044490281354478e-07  -5.6770985807133802e-08  -8.3650024062248597e-07  -1.8361632215894873e-06  -5.8176598377210763e-07  -6.1323760796399195e-07  -1.9111903980160330e-07  6.1323760798807267e-07  2.3688578806119884e-07  1.8361632216136334e-06  8.8136413121216646e-07  2.5728098867906904e-07  1.5933661325842884e-06  8.9411852051143446e-07  5.0120039864039399e-07  0.0000000000000000e+00  3.8833858468060770e-07  2.9317124768980203e-07  2.2256531864044478e-07  1.8224795254963313e-07  -7.2103057391947386e-08  -2.3841462653693276e-07  -1.1061125802377089e-07  9.6984763262576738e-08  1.7086764719848468e-07  4.8345004367796597e-08  -9.3170297332018782e-08  -4.2282666365422496e-07  -4.3363340018555501e-07  7.5568367269462934e-18  7.7275747899051731e-07  1.1407204274295393e-06  2.5616354502099327e-07  1.2088442825835553e-07  -3.5168009734275719e-07  -3.8658063990556081e-08  -7.8388908341221919e-07  -1.7599154495280464e-06  -5.2808120362617956e-07  -5.7702685741129469e-07  -1.6482894709726095e-07  5.7702685743395357e-07  2.1502620567498977e-07  1.7599154495511897e-06  8.2593128778323061e-07  1.7519486023544056e-07  1.5126545198866930e-06  8.3650024062923121e-07  4.4547565093009425e-07  4.6120489348507665e-07  3.7044490281588439e-07  2.7410069098399210e-07  2.0787541649296301e-07  3.2037038197681141e-08  -6.7456632957303701e-08  -2.2341968835421629e-07  -1.0371098025691828e-07  9.0182720683848540e-08  1.5737141420391355e-07  4.4526402931133711e-08  -8.6635782958772897e-08  -3.9644940804233503e-07  -4.0568944192387934e-07  7.0526296497945116e-18  7.3361361802976380e-07  1.1097693050323508e-06  2.2092601267954832e-07  1.1328147807314002e-07  -3.3232027514121076e-07  -1.9623519517489551e-08  -7.3530752866206961e-07  -1.6788228967790920e-06  -4.6936777897119640e-07  -5.4099508246851154e-07  -1.3601832401154821e-07  5.4099508248975555e-07  1.9111903980910825e-07  1.6788228968011690e-06  7.7474416587225704e-07  8.8932021014655273e-08  1.4293836075472029e-06  7.8388908341854028e-07  3.8419658541868835e-07  4.4869103928803624e-07  3.5168009734497827e-07  2.5581215131586428e-07  8.0981230750238948e-08  3.0022088803386588e-08  -6.3213990398407389e-08  -2.0957324495843046e-07  -9.6984763257043469e-08  8.3059505549858315e-08  1.4284933830320163e-07  4.0417551230063311e-08  -7.9792727929634165e-08  -3.7073752352095836e-07  -3.8017385929628854e-07  6.5773373735462616e-18  6.9322853705133365e-07  1.0766268895099388e-06  1.8231012515959689e-07  1.0626085430678749e-07  -3.1269726697852700e-07  0.0000000000000000e+00  -6.8943673501522550e-07  -1.5937824903955819e-06  -4.0480214263065363e-07  -5.0580378223331125e-07  -1.0476069666026584e-07  5.0580378225317333e-07  1.6482894710373352e-07  1.5937824904165406e-06  7.2641319090388414e-07  0.0000000000000000e+00  1.3449806737009714e-06  7.3530752866799884e-07  3.1704246468779396e-07  4.3529122294978081e-07  3.3232027514330955e-07  1.7129991039643872e-18  7.5929367169063977e-08  2.8161468746570972e-08  -5.9296301020533095e-08  -1.9649940755208767e-07  -9.0182720678703345e-08  7.5394857875613498e-08  1.2696698194609794e-07  3.5923824067289510e-08  -7.2429535210163857e-08  -3.4473578535416656e-07  -3.5661257039610121e-07  6.1360289461832943e-18  6.5229444347132772e-07  1.0408218002825807e-06  1.4041443209017995e-07  9.9631968390832031e-08  -2.9317124768795052e-07  -1.9837450910225585e-06  -6.4472304051624539e-07  -1.5060455218405378e-06  -3.3404635512484066e-07  -4.7205555452014861e-07  -7.1336540269816692e-08  4.7205555453868540e-07  1.3601832401688944e-07  1.5060455218603425e-06  6.7930137360655331e-07  1.9837450910385556e-06  1.2609949106212411e-06  6.8943673502078500e-07  2.4418466933000240e-07  4.2081486049825672e-07  -4.2312517039525897e-08  1.5776953445596638e-18  7.1004937769427421e-08  2.6404667855362256e-08  -5.5597211480292506e-08  -1.8375536008220548e-07  -8.3059505545119523e-08  6.7012263916850703e-08  1.0950156495144079e-07  3.0982188393502476e-08  -6.4376633442109760e-08  -3.1750632116366565e-07  -3.3436595793685629e-07  5.7310347388909805e-18  6.1156267114268885e-07  1.0021098617176171e-06  9.5614864243869980e-08  9.3170297332846810e-08  -2.7410069098226098e-07  -1.9299202136550024e-06  -5.9950528232875078e-07  -1.4171158182409234e-06  -2.5728098867568562e-07  -4.4024268894169750e-07  -3.6211694166498026e-08  4.4024268895898507e-07  1.0476069666437964e-07  1.4171158182595586e-06  6.3165845824931928e-07  1.9299202136705654e-06  1.1789681936828028e-06  6.4472304052144437e-07  1.6627695359283022e-07  0.0000000000000000e+00  -3.4916668181046861e-08  1.4321072041861661e-18  6.6024994593199052e-08  2.4692182587507133e-08  -5.1991432149328816e-08  -1.7086764719513393e-07  -7.5394857871312000e-08  5.7794141889182997e-08  9.0361672531633691e-08  2.5566779462636497e-08  -5.5521065399577472e-08  -2.8820715702881158e-07  -3.1268052034015318e-07  5.3617186403818371e-18  5.7178100533785010e-07  9.6049665248961414e-07  4.8535802390674937e-08  8.6635782959542837e-08  -2.5581215131424867e-07  -1.8722846155572598e-06  -5.5215247385713789e-07  -1.3286256594642766e-06  -1.7519486023313663e-07  -4.1070447344794757e-07  0.0000000000000000e+00  4.1070447346407523e-07  7.1336540272617962e-08  1.3286256594817482e-06  5.8176598377975814e-07  1.8722846155723580e-06  1.1003051064055504e-06  5.9950528233358501e-07  -6.3971832394803815e-08  -2.1847473702862786e-07  -2.6892659575714552e-08  1.2728818466967055e-18  6.0809913066033195e-08  2.2960392235374949e-08  -4.8345004367148994e-08  -1.5737141420082747e-07  -6.7012263913027461e-08  4.7692243722297713e-08  6.9596150625977728e-08  1.9691417662503886e-08  -4.5816480636316467e-08  -2.5616354501792738e-07  -2.9075061979346288e-07  5.0244967143051266e-18  5.3363064694194962e-07  9.1623934144771419e-07  0.0000000000000000e+00  7.9792727930343304e-08  -2.3857240589621813e-07  -1.8100185525671817e-06  -5.0120039863635238e-07  -1.2421996160535774e-06  -8.8932021013485772e-08  -3.8359688739933210e-07  8.5107111069649795e-07  3.8359688741439531e-07  3.6211694167920002e-08  1.2421996160699124e-06  5.2808120363312417e-07  1.8100185525817776e-06  1.0261531170683101e-06  1.5236442218471532e-08  -6.1024168520204588e-08  -2.1254687059977469e-07  -1.8312490790384975e-08  1.0977858343576452e-18  5.5198435419169254e-08  2.1146831808131526e-08  -4.4526402930537254e-08  -1.4284933830040033e-07  -5.7794141885885663e-08  3.6732349953193846e-08  4.7391328618735151e-08  1.3408822715320641e-08  -3.5287645726134546e-08  -2.2092601267690420e-07  -2.6778525348576003e-07  4.7131033458002108e-18  4.9766809999773908e-07  8.6982743814882435e-07  2.8667522075083943e-07  7.2429535210807550e-08  -2.2256531863903913e-07  -1.7426973963525429e-06  -4.4547565092650199e-07  -1.1593176033436723e-06  0.0000000000000000e+00  -3.5887735378820156e-07  8.2797903179401378e-07  3.5887735380229407e-07  0.0000000000000000e+00  1.1593176033589176e-06  4.6936777897736888e-07  1.7426973963665958e-06  1.6122141398478367e-08  1.4209624752712037e-08  -5.7933002620495720e-08  -2.0619932010305172e-07  -9.2957453980818981e-09  9.0590270666982427e-19  4.9061331585891149e-08  1.9195423427322570e-08  -4.0417551229521898e-08  -1.2696698194360811e-07  -4.7692243719576726e-08  2.5012803896662845e-08  2.4056679670681378e-08  6.8065564360629234e-09  -2.4029036085287845e-08  -1.8231012515741491e-07  -2.4307429949272616e-07  4.4190851526167033e-18  4.6427690929463791e-07  8.2194385111667154e-07  2.7889687328519957e-07  6.4376633442681865e-08  -2.0787541649165014e-07  -1.6703308483862189e-06  -3.8419658541559022e-07  -1.0811886316056009e-06  -8.5107111066307773e-07  -3.3630598804023092e-07  8.0325206827905022e-07  3.3630598805343712e-07  2.0901389907484255e-06  1.0811886316198188e-06  4.0480214263597707e-07  -2.1106605598050189e-09  1.4991412317294519e-08  1.3256225710379466e-08  -5.4743818362390247e-08  -1.9934180509312012e-07  0.0000000000000000e+00  6.9772215873718461e-19  4.2312517041141963e-08  1.7061226945073966e-08  -3.5923824066808296e-08  -1.0950156494929344e-07  -3.6732349951098154e-08  1.2696943270961809e-08  0.0000000000000000e+00  0.0000000000000000e+00  -1.2197565266623274e-08  -1.4041443208849941e-07  -2.1604867451151262e-07  4.1324836220575310e-18  4.3363340019566842e-07  7.7340931348463401e-07  2.7056783046485405e-07  5.5521065400070895e-08  -1.9447962650041454e-07  -1.5933661325714398e-06  -3.1704246468523740e-07  -1.0086459555045372e-06  -8.2797903176150031e-07  -3.1546341207315626e-07  7.7653853153106627e-07  3.1546341208554406e-07  2.0334273318930078e-06  1.0086459555178013e-06  -3.5743603349998767e-08  0.0000000000000000e+00  1.3807293516168521e-08  1.2381279605928225e-08  -5.1511278926976042e-08  -1.9192756020499543e-07  5.6682629220803916e-18  4.7511219818736448e-19  3.4916668182380455e-08  1.4714306206557071e-08  -3.0982188393087456e-08  -9.0361672529861685e-08  -2.5012803895235789e-08  0.0000000000000000e+00  1.5997217692151991e-07  -2.8667522074829172e-07  0.0000000000000000e+00  -9.5614864242725625e-08  -1.8632929287662066e-07  3.8426511926373660e-18  4.0568944193334096e-07  7.2511466313308633e-07  2.6156962931807004e-07  4.5816480636723645e-08  -1.8224795254848212e-07  -1.5126545198744950e-06  -2.4418466932803336e-07  -9.4207264355133186e-07  -8.0325206824750777e-07  -2.9578381338243292e-07  7.4765624647727866e-07  2.9578381339404791e-07  1.9727005725001960e-06  -9.5469546717629770e-09  -3.3632997790338845e-08  4.9606136040049218e-08  1.2533170350665314e-08  1.1583412189843239e-08  -4.8294716672597694e-08  -1.8395765388580072e-07  5.5144661676240136e-18  2.4117538572042181e-19  2.6892659576741682e-08  1.2142377321791880e-08  -2.5566779462294018e-08  -6.9596150624612946e-08  -1.2696943270237411e-08  5.6539594618399719e-07  1.5563165815023800e-07  -2.7889687328272094e-07  -1.1407204274158871e-06  -4.8535802390094038e-08  -1.5376060199171176e-07  3.5391337236313289e-18  3.8017385930515507e-07  6.7794653047866840e-07  2.5184090590175388e-07  3.5287645726448153e-08  -1.7095312899219997e-07  -1.4293836075356767e-06  -1.6627695359148940e-07  -8.8136413120057629e-07  -7.7653853150057287e-07  -2.7660063616308540e-07  7.1660937526701471e-07  2.7660063617394706e-07  -2.7469851115354981e-08  -8.9277831177850872e-09  -3.1532824130365119e-08  4.8260174706046556e-08  1.1139700278224023e-08  1.0854880755951885e-08  -4.5153183728445207e-08  -1.7548134000645576e-07  5.3497808332189957e-18  0.0000000000000000e+00  1.8312490791084399e-08  9.3520039787781185e-09  -1.9691417662240108e-08  -4.7391328617805797e-08  0.0000000000000000e+00  5.5005508026065431e-07  1.5098383714864093e-07  -2.7056783046244943e-07  -1.1097693050190689e-06  0.0000000000000000e+00  -1.1842571874496835e-07  3.2125460214280074e-18  3.5661257040441823e-07  6.3271259848448427e-07  2.4138306219637718e-07  2.4029036085501393e-08  -1.6028853574704171e-07  -1.3449806736901255e-06  -8.4405133296597877e-08  -8.2593128777236932e-07  -7.4765624644791944e-07  -2.5720120432253143e-07  6.8358978697950955e-07  2.8626684290865546e-09  -2.6724512727736413e-08  -8.3016315568804913e-09  -2.9481638976939931e-08  4.6818921324790570e-08  9.6073372372778468e-09  1.0182149122216008e-08  -4.2140474096829714e-08  -1.6659237113695653e-07  5.1718646192115535e-18  2.1847473703697225e-07  9.2957453984369372e-09  6.3682242453875084e-09  -1.3408822715141024e-08  -2.4056679670209620e-08  2.9841193184606484e-07  5.3362810399851954e-07  1.4596260851904882e-07  -2.6156962931574541e-07  -1.0766268894970540e-06  -9.6208512539971591e-07  -8.0641703649882743e-08  2.8553669029807242e-18  3.3436595794465444e-07  5.9007270016607515e-07  2.3026072747904003e-07  1.2197565266731676e-08  -1.4989295881433910e-07  -1.2609949106110725e-06  0.0000000000000000e+00  -7.7474416586206882e-07  -7.1660937523887459e-07  -2.3688578805189670e-07  1.5400315142835030e-19  2.6705968306943515e-09  -2.5926405498206578e-08  -7.6459149507017135e-09  -2.7514565774841810e-08  4.5261877123223364e-08  7.9280607699154919e-09  9.5469546721926129e-09  -3.9300534549423275e-08  -1.5742154028893685e-07  4.9795042119344671e-18  2.1254687060789266e-07  0.0000000000000000e+00  3.2326236720400842e-09  -6.8065564359717474e-09  0.0000000000000000e+00  2.9031513266086796e-07  5.1588137849495175e-07  1.4053372959641559e-07  -2.5184090589951570e-07  -1.0408218002701240e-06  -9.3598090761178617e-07  -4.0935160278167857e-08  2.4625862534849930e-18  3.1268052034744555e-07  5.5048159504997707e-07  2.1859692072697088e-07  0.0000000000000000e+00  -1.3938019109899933e-07  -1.1789681936732957e-06  -2.0901389907209388e-06  -7.2641319089433141e-07  -6.8358978695266623e-07  7.4355534996984711e-19  1.0486806945523141e-19  2.4943303469586154e-09  -2.5064178043874185e-08  -6.9403576053212788e-09  -2.5660298466549538e-08  4.3578423715489730e-08  6.1061564716144822e-09  8.9277831181868571e-09  -3.6663653375243988e-08  -1.4812603712182064e-07  4.7727273319347169e-18  2.0619932011092725e-07  7.5975252808365752e-08  0.0000000000000000e+00  0.0000000000000000e+00  -2.9841193182903974e-07  2.8164509221601163e-07  4.9669387855434375e-07  1.3469798272205230e-07  -2.4138306219423196e-07  -1.0021098617056235e-06  -9.0802855028810824e-07  0.0000000000000000e+00  2.0321482411415135e-18  2.9075061980024380e-07  5.1414834773781315e-07  2.0656326414231895e-07  -4.6120489348216381e-07  -1.2837104124095281e-07  -1.1003051063966778e-06  -2.0334273318662670e-06  -6.7930137359762018e-07  -6.8120413224526977e-10  6.9394386790989718e-19  5.3232893613578556e-20  2.3335921218209371e-09  -2.4131950336544895e-08  -6.1687108196744116e-09  -2.3938613030816474e-08  4.1768803699585484e-08  4.1579723208956264e-09  8.3016315572540841e-09  -3.4243754876495360e-08  -1.3887647799959164e-07  4.5528118564355487e-18  1.9934180510073373e-07  7.3913819268398471e-08  -1.5997217691937700e-07  -5.6539594617290963e-07  -2.9031513264430476e-07  2.7227849757166640e-07  4.7606836923631014e-07  1.2849143270171183e-07  -2.3026072747699365e-07  -9.6049665247811864e-07  -8.7783049042091200e-07  1.2715218138355312e-17  1.5651513647590902e-18  2.6778525349200542e-07  4.8101589077451853e-07  1.9436601672293430e-07  -4.4869103928520249e-07  -1.1652509060382513e-07  -1.0261531170600355e-06  -1.9727005724742543e-06  -2.8626684286989758e-09  -4.6386428843128792e-10  6.4717745921622363e-19  0.0000000000000000e+00  2.1868223110981107e-09  -2.3129856717075663e-08  -5.3201507835635580e-09  -2.2358600991576764e-08  3.9844200493120261e-08  2.1106605600376043e-09  7.6459149510457975e-09  -3.2037038196962897e-08  -1.2984267345816998e-07  4.3221901683457848e-18  1.9192756021232587e-07  7.1706439320211579e-08  -1.5563165814815324e-07  -5.5005508024986745e-07  -2.8164509219994305e-07  2.6215147249619883e-07  4.5413231579990386e-07  1.2198272730180520e-07  -2.1859692072502818e-07  -9.1623934143674839e-07  -8.4518078995691308e-07  1.2370216625763837e-17  1.0657859953201655e-18  2.4307429949839524e-07  4.5076269846061973e-07  1.8222905553796447e-07  -4.3529122294703161e-07  -1.0356953172272202e-07  -9.5730306534386354e-07  -5.5340712299611076e-09  -2.6705968303327777e-09  -2.3546574706176441e-10  6.0375489313345549e-19  5.5340712307103711e-09  2.0512939180083521e-09  -2.2064090105157910e-08  -4.3902360951322563e-09  -2.0917780675081929e-08  3.7825901238051875e-08  0.0000000000000000e+00  6.9403576056336106e-09  -3.0022088802713521e-08  -1.2117931374305642e-07  4.0842556539598521e-18  1.8395765389282672e-07  6.9321717664963886e-08  -1.5098383714661845e-07  -5.3362810398805488e-07  -2.7227849755613219e-07  2.5126547636827394e-07  4.3112834274139840e-07  1.1526763614348743e-07  -2.0656326414048319e-07  -8.6982743813841400e-07  -8.1008415395765936e-07  1.2000789522622466e-17  5.4101189044908117e-19  2.1604867451655144e-07  4.2282666365928545e-07  1.7037520027600513e-07  -4.2081486049559905e-07  -8.9322638304032678e-08  4.3603653550242863e-20  -5.3839154933979828e-09  -2.4943303466209061e-09  0.0000000000000000e+00  5.6390546665779770e-19  5.3839154941269159e-09  1.9233277591507144e-09  -2.0946438450165078e-08  -3.3813399420364268e-09  -1.9602169998427891e-08  3.5743603353937556e-08  2.7469851116591193e-08  6.1687108199520176e-09  -2.8161468745939621e-08  -1.1301277236443516e-07  3.8430865528507305e-18  1.7548134001315805e-07  6.6743391505062870e-08  -1.4596260851709361e-07  -5.1588137848483500e-07  -2.6215147248124240e-07  2.3968778443889770e-07  4.0739493239322609e-07  1.0846125707445295e-07  -1.9436601672120693e-07  -8.2194385110683431e-07  -7.7275747897249457e-07  1.1601682511788072e-17  0.0000000000000000e+00  1.8632929288096633e-07  3.9644940804707984e-07  1.5900743028780426e-07  -4.0516322923431438e-07  9.0401837395574145e-20  4.0775721203641295e-20  -5.2231289555016713e-09  -2.3335921215049901e-09  1.2511145621414359e-18  5.2756658958542877e-19  5.2231289562088355e-09  1.7985895700227827e-09  -1.9793346969541422e-08  -2.3025151667639650e-09  -1.8387324792451747e-08  3.3632997794045051e-08  2.6724512728939084e-08  5.3201507838029772e-09  -2.6404667854770289e-08  -1.0543014644582761e-07  3.6031094564999923e-18  1.6659237114331928e-07  6.3971832396238001e-08  -1.4053372959453306e-07  -4.9669387854460340e-07  -2.5126547635393854e-07  2.2754645217987675e-07  3.8333887959779758e-07  1.0168851928118859e-07  -1.8222905553634499e-07  -7.7340931347537764e-07  -7.3361361801265384e-07  1.1170173851492315e-17  9.6208512542215445e-07  1.5376060199529784e-07  3.7073752352539538e-07  1.4829156865396996e-07  5.3382304759923253e-21  8.5063746024588237e-20  3.7915909182915950e-20  -5.0494247687310235e-09  -2.1868223108020346e-09  1.2171681200381744e-18  4.9438562030930684e-19  5.0494247694146701e-09  1.6724451899635269e-09  -1.8624579854790146e-08  -1.1687975715841953e-09  -1.7240265707109946e-08  3.1532824133839900e-08  2.5926405499373330e-08  4.3902360953298275e-09  -2.4692182586953564e-08  -9.8471476765643049e-08  3.3687300494166372e-18  1.5742154029494936e-07  6.1024168521572692e-08  -1.3469798272024796e-07  -4.7606836922697419e-07  -2.3968778442522288e-07  2.1502012814254682e-07  3.5940172648424457e-07  9.5073761904525098e-08  -1.7037520027449101e-07  -7.2511466312440816e-07  -6.9322853703516569e-07  1.0706325725301239e-17  9.3598090763361580e-07  1.1842571874773031e-07  3.4473578535829246e-07  4.0775721203641295e-20  0.0000000000000000e+00  7.9752038756232520e-20  3.4921065203240849e-20  -4.8616183436710839e-09  -2.0512939177306254e-09  1.1808183206591388e-18  4.6374605332338277e-19  4.8616183443293029e-09  1.5403446412377780e-09  -1.7461589499813723e-08  0.0000000000000000e+00  -1.6122141396701779e-08  2.9481638980188677e-08  2.5064178045002135e-08  3.3813399421885950e-09  -2.2960392234860198e-08  -9.2125833566739928e-08  3.1439617246130765e-18  1.4812603712747810e-07  5.7933002621794513e-08  -1.2849143269999064e-07  -4.5413231579099816e-07  -2.2