<?xml version="1.0"?>
<VTKFile type="UnstructuredGrid"  version="0.1"  >
<UnstructuredGrid>
<Piece  NumberOfPoints="1089" NumberOfCells="2048">
<Points>
<DataArray  type="Float64"  NumberOfComponents="3"  format="ascii">0 0 0  0.03125 0 0  0.0625 0 0  0.09375 0 0  0.125 0 0  0.15625 0 0  0.1875 0 0  0.21875 0 0  0.25 0 0  0.28125 0 0  0.3125 0 0  0.34375 0 0  0.375 0 0  0.40625 0 0  0.4375 0 0  0.46875 0 0  0.5 0 0  0.53125 0 0  0.5625 0 0  0.59375 0 0  0.625 0 0  0.65625 0 0  0.6875 0 0  0.71875 0 0  0.75 0 0  0.78125 0 0  0.8125 0 0  0.84375 0 0  0.875 0 0  0.90625 0 0  0.9375 0 0  0.96875 0 0  1 0 0  0 0.03125 0  0.03125 0.03125 0  0.0625 0.03125 0  0.09375 0.03125 0  0.125 0.03125 0  0.15625 0.03125 0  0.1875 0.03125 0  0.21875 0.03125 0  0.25 0.03125 0  0.28125 0.03125 0  0.3125 0.03125 0  0.34375 0.03125 0  0.375 0.03125 0  0.40625 0.03125 0  0.4375 0.03125 0  0.46875 0.03125 0  0.5 0.03125 0  0.53125 0.03125 0  0.5625 0.03125 0  0.59375 0.03125 0  0.625 0.03125 0  0.65625 0.03125 0  0.6875 0.03125 0  0.71875 0.03125 0  0.75 0.03125 0  0.78125 0.03125 0  0.8125 0.03125 0  0.84375 0.03125 0  0.875 0.03125 0  0.90625 0.03125 0  0.9375 0.03125 0  0.96875 0.03125 0  1 0.03125 0  0 0.0625 0  0.03125 0.0625 0  0.0625 0.0625 0  0.09375 0.0625 0  0.125 0.0625 0  0.15625 0.0625 0  0.1875 0.0625 0  0.21875 0.0625 0  0.25 0.0625 0  0.28125 0.0625 0  0.3125 0.0625 0  0.34375 0.0625 0  0.375 0.0625 0  0.40625 0.0625 0  0.4375 0.0625 0  0.46875 0.0625 0  0.5 0.0625 0  0.53125 0.0625 0  0.5625 0.0625 0  0.59375 0.0625 0  0.625 0.0625 0  0.65625 0.0625 0  0.6875 0.0625 0  0.71875 0.0625 0  0.75 0.0625 0  0.78125 0.0625 0  0.8125 0.0625 0  0.84375 0.0625 0  0.875 0.0625 0  0.90625 0.0625 0  0.9375 0.0625 0  0.96875 0.0625 0  1 0.0625 0  0 0.09375 0  0.03125 0.09375 0  0.0625 0.09375 0  0.09375 0.09375 0  0.125 0.09375 0  0.15625 0.09375 0  0.1875 0.09375 0  0.21875 0.09375 0  0.25 0.09375 0  0.28125 0.09375 0  0.3125 0.09375 0  0.34375 0.09375 0  0.375 0.09375 0  0.40625 0.09375 0  0.4375 0.09375 0  0.46875 0.09375 0  0.5 0.09375 0  0.53125 0.09375 0  0.5625 0.09375 0  0.59375 0.09375 0  0.625 0.09375 0  0.65625 0.09375 0  0.6875 0.09375 0  0.71875 0.09375 0  0.75 0.09375 0  0.78125 0.09375 0  0.8125 0.09375 0  0.84375 0.09375 0  0.875 0.09375 0  0.90625 0.09375 0  0.9375 0.09375 0  0.96875 0.09375 0  1 0.09375 0  0 0.125 0  0.03125 0.125 0  0.0625 0.125 0  0.09375 0.125 0  0.125 0.125 0  0.15625 0.125 0  0.1875 0.125 0  0.21875 0.125 0  0.25 0.125 0  0.28125 0.125 0  0.3125 0.125 0  0.34375 0.125 0  0.375 0.125 0  0.40625 0.125 0  0.4375 0.125 0  0.46875 0.125 0  0.5 0.125 0  0.53125 0.125 0  0.5625 0.125 0  0.59375 0.125 0  0.625 0.125 0  0.65625 0.125 0  0.6875 0.125 0  0.71875 0.125 0  0.75 0.125 0  0.78125 0.125 0  0.8125 0.125 0  0.84375 0.125 0  0.875 0.125 0  0.90625 0.125 0  0.9375 0.125 0  0.96875 0.125 0  1 0.125 0  0 0.15625 0  0.03125 0.15625 0  0.0625 0.15625 0  0.09375 0.15625 0  0.125 0.15625 0  0.15625 0.15625 0  0.1875 0.15625 0  0.21875 0.15625 0  0.25 0.15625 0  0.28125 0.15625 0  0.3125 0.15625 0  0.34375 0.15625 0  0.375 0.15625 0  0.40625 0.15625 0  0.4375 0.15625 0  0.46875 0.15625 0  0.5 0.15625 0  0.53125 0.15625 0  0.5625 0.15625 0  0.59375 0.15625 0  0.625 0.15625 0  0.65625 0.15625 0  0.6875 0.15625 0  0.71875 0.15625 0  0.75 0.15625 0  0.78125 0.15625 0  0.8125 0.15625 0  0.84375 0.15625 0  0.875 0.15625 0  0.90625 0.15625 0  0.9375 0.15625 0  0.96875 0.15625 0  1 0.15625 0  0 0.1875 0  0.03125 0.1875 0  0.0625 0.1875 0  0.09375 0.1875 0  0.125 0.1875 0  0.15625 0.1875 0  0.1875 0.1875 0  0.21875 0.1875 0  0.25 0.1875 0  0.28125 0.1875 0  0.3125 0.1875 0  0.34375 0.1875 0  0.375 0.1875 0  0.40625 0.1875 0  0.4375 0.1875 0  0.46875 0.1875 0  0.5 0.1875 0  0.53125 0.1875 0  0.5625 0.1875 0  0.59375 0.1875 0  0.625 0.1875 0  0.65625 0.1875 0  0.6875 0.1875 0  0.71875 0.1875 0  0.75 0.1875 0  0.78125 0.1875 0  0.8125 0.1875 0  0.84375 0.1875 0  0.875 0.1875 0  0.90625 0.1875 0  0.9375 0.1875 0  0.96875 0.1875 0  1 0.1875 0  0 0.21875 0  0.03125 0.21875 0  0.0625 0.21875 0  0.09375 0.21875 0  0.125 0.21875 0  0.15625 0.21875 0  0.1875 0.21875 0  0.21875 0.21875 0  0.25 0.21875 0  0.28125 0.21875 0  0.3125 0.21875 0  0.34375 0.21875 0  0.375 0.21875 0  0.40625 0.21875 0  0.4375 0.21875 0  0.46875 0.21875 0  0.5 0.21875 0  0.53125 0.21875 0  0.5625 0.21875 0  0.59375 0.21875 0  0.625 0.21875 0  0.65625 0.21875 0  0.6875 0.21875 0  0.71875 0.21875 0  0.75 0.21875 0  0.78125 0.21875 0  0.8125 0.21875 0  0.84375 0.21875 0  0.875 0.21875 0  0.90625 0.21875 0  0.9375 0.21875 0  0.96875 0.21875 0  1 0.21875 0  0 0.25 0  0.03125 0.25 0  0.0625 0.25 0  0.09375 0.25 0  0.125 0.25 0  0.15625 0.25 0  0.1875 0.25 0  0.21875 0.25 0  0.25 0.25 0  0.28125 0.25 0  0.3125 0.25 0  0.34375 0.25 0  0.375 0.25 0  0.40625 0.25 0  0.4375 0.25 0  0.46875 0.25 0  0.5 0.25 0  0.53125 0.25 0  0.5625 0.25 0  0.59375 0.25 0  0.625 0.25 0  0.65625 0.25 0  0.6875 0.25 0  0.71875 0.25 0  0.75 0.25 0  0.78125 0.25 0  0.8125 0.25 0  0.84375 0.25 0  0.875 0.25 0  0.90625 0.25 0  0.9375 0.25 0  0.96875 0.25 0  1 0.25 0  0 0.28125 0  0.03125 0.28125 0  0.0625 0.28125 0  0.09375 0.28125 0  0.125 0.28125 0  0.15625 0.28125 0  0.1875 0.28125 0  0.21875 0.28125 0  0.25 0.28125 0  0.28125 0.28125 0  0.3125 0.28125 0  0.34375 0.28125 0  0.375 0.28125 0  0.40625 0.28125 0  0.4375 0.28125 0  0.46875 0.28125 0  0.5 0.28125 0  0.53125 0.28125 0  0.5625 0.28125 0  0.59375 0.28125 0  0.625 0.28125 0  0.65625 0.28125 0  0.6875 0.28125 0  0.71875 0.28125 0  0.75 0.28125 0  0.78125 0.28125 0  0.8125 0.28125 0  0.84375 0.28125 0  0.875 0.28125 0  0.90625 0.28125 0  0.9375 0.28125 0  0.96875 0.28125 0  1 0.28125 0  0 0.3125 0  0.03125 0.3125 0  0.0625 0.3125 0  0.09375 0.3125 0  0.125 0.3125 0  0.15625 0.3125 0  0.1875 0.3125 0  0.21875 0.3125 0  0.25 0.3125 0  0.28125 0.3125 0  0.3125 0.3125 0  0.34375 0.3125 0  0.375 0.3125 0  0.40625 0.3125 0  0.4375 0.3125 0  0.46875 0.3125 0  0.5 0.3125 0  0.53125 0.3125 0  0.5625 0.3125 0  0.59375 0.3125 0  0.625 0.3125 0  0.65625 0.3125 0  0.6875 0.3125 0  0.71875 0.3125 0  0.75 0.3125 0  0.78125 0.3125 0  0.8125 0.3125 0  0.84375 0.3125 0  0.875 0.3125 0  0.90625 0.3125 0  0.9375 0.3125 0  0.96875 0.3125 0  1 0.3125 0  0 0.34375 0  0.03125 0.34375 0  0.0625 0.34375 0  0.09375 0.34375 0  0.125 0.34375 0  0.15625 0.34375 0  0.1875 0.34375 0  0.21875 0.34375 0  0.25 0.34375 0  0.28125 0.34375 0  0.3125 0.34375 0  0.34375 0.34375 0  0.375 0.34375 0  0.40625 0.34375 0  0.4375 0.34375 0  0.46875 0.34375 0  0.5 0.34375 0  0.53125 0.34375 0  0.5625 0.34375 0  0.59375 0.34375 0  0.625 0.34375 0  0.65625 0.34375 0  0.6875 0.34375 0  0.71875 0.34375 0  0.75 0.34375 0  0.78125 0.34375 0  0.8125 0.34375 0  0.84375 0.34375 0  0.875 0.34375 0  0.90625 0.34375 0  0.9375 0.34375 0  0.96875 0.34375 0  1 0.34375 0  0 0.375 0  0.03125 0.375 0  0.0625 0.375 0  0.09375 0.375 0  0.125 0.375 0  0.15625 0.375 0  0.1875 0.375 0  0.21875 0.375 0  0.25 0.375 0  0.28125 0.375 0  0.3125 0.375 0  0.34375 0.375 0  0.375 0.375 0  0.40625 0.375 0  0.4375 0.375 0  0.46875 0.375 0  0.5 0.375 0  0.53125 0.375 0  0.5625 0.375 0  0.59375 0.375 0  0.625 0.375 0  0.65625 0.375 0  0.6875 0.375 0  0.71875 0.375 0  0.75 0.375 0  0.78125 0.375 0  0.8125 0.375 0  0.84375 0.375 0  0.875 0.375 0  0.90625 0.375 0  0.9375 0.375 0  0.96875 0.375 0  1 0.375 0  0 0.40625 0  0.03125 0.40625 0  0.0625 0.40625 0  0.09375 0.40625 0  0.125 0.40625 0  0.15625 0.40625 0  0.1875 0.40625 0  0.21875 0.40625 0  0.25 0.40625 0  0.28125 0.40625 0  0.3125 0.40625 0  0.34375 0.40625 0  0.375 0.40625 0  0.40625 0.40625 0  0.4375 0.40625 0  0.46875 0.40625 0  0.5 0.40625 0  0.53125 0.40625 0  0.5625 0.40625 0  0.59375 0.40625 0  0.625 0.40625 0  0.65625 0.40625 0  0.6875 0.40625 0  0.71875 0.40625 0  0.75 0.40625 0  0.78125 0.40625 0  0.8125 0.40625 0  0.84375 0.40625 0  0.875 0.40625 0  0.90625 0.40625 0  0.9375 0.40625 0  0.96875 0.40625 0  1 0.40625 0  0 0.4375 0  0.03125 0.4375 0  0.0625 0.4375 0  0.09375 0.4375 0  0.125 0.4375 0  0.15625 0.4375 0  0.1875 0.4375 0  0.21875 0.4375 0  0.25 0.4375 0  0.28125 0.4375 0  0.3125 0.4375 0  0.34375 0.4375 0  0.375 0.4375 0  0.40625 0.4375 0  0.4375 0.4375 0  0.46875 0.4375 0  0.5 0.4375 0  0.53125 0.4375 0  0.5625 0.4375 0  0.59375 0.4375 0  0.625 0.4375 0  0.65625 0.4375 0  0.6875 0.4375 0  0.71875 0.4375 0  0.75 0.4375 0  0.78125 0.4375 0  0.8125 0.4375 0  0.84375 0.4375 0  0.875 0.4375 0  0.90625 0.4375 0  0.9375 0.4375 0  0.96875 0.4375 0  1 0.4375 0  0 0.46875 0  0.03125 0.46875 0  0.0625 0.46875 0  0.09375 0.46875 0  0.125 0.46875 0  0.15625 0.46875 0  0.1875 0.46875 0  0.21875 0.46875 0  0.25 0.46875 0  0.28125 0.46875 0  0.3125 0.46875 0  0.34375 0.46875 0  0.375 0.46875 0  0.40625 0.46875 0  0.4375 0.46875 0  0.46875 0.46875 0  0.5 0.46875 0  0.53125 0.46875 0  0.5625 0.46875 0  0.59375 0.46875 0  0.625 0.46875 0  0.65625 0.46875 0  0.6875 0.46875 0  0.71875 0.46875 0  0.75 0.46875 0  0.78125 0.46875 0  0.8125 0.46875 0  0.84375 0.46875 0  0.875 0.46875 0  0.90625 0.46875 0  0.9375 0.46875 0  0.96875 0.46875 0  1 0.46875 0  0 0.5 0  0.03125 0.5 0  0.0625 0.5 0  0.09375 0.5 0  0.125 0.5 0  0.15625 0.5 0  0.1875 0.5 0  0.21875 0.5 0  0.25 0.5 0  0.28125 0.5 0  0.3125 0.5 0  0.34375 0.5 0  0.375 0.5 0  0.40625 0.5 0  0.4375 0.5 0  0.46875 0.5 0  0.5 0.5 0  0.53125 0.5 0  0.5625 0.5 0  0.59375 0.5 0  0.625 0.5 0  0.65625 0.5 0  0.6875 0.5 0  0.71875 0.5 0  0.75 0.5 0  0.78125 0.5 0  0.8125 0.5 0  0.84375 0.5 0  0.875 0.5 0  0.90625 0.5 0  0.9375 0.5 0  0.96875 0.5 0  1 0.5 0  0 0.53125 0  0.03125 0.53125 0  0.0625 0.53125 0  0.09375 0.53125 0  0.125 0.53125 0  0.15625 0.53125 0  0.1875 0.53125 0  0.21875 0.53125 0  0.25 0.53125 0  0.28125 0.53125 0  0.3125 0.53125 0  0.34375 0.53125 0  0.375 0.53125 0  0.40625 0.53125 0  0.4375 0.53125 0  0.46875 0.53125 0  0.5 0.53125 0  0.53125 0.53125 0  0.5625 0.53125 0  0.59375 0.53125 0  0.625 0.53125 0  0.65625 0.53125 0  0.6875 0.53125 0  0.71875 0.53125 0  0.75 0.53125 0  0.78125 0.531
[...]
<PointData  Scalars="phi"> 
<DataArray  type="Float64"  Name="phi"  format="ascii">0.0000000000000000e+00  0.0000000000000000e+00  0.0000000000000000e+00  0.0000000000000000e+00  0.0000000000000000e+00  0.0000000000000000e+00  0.0000000000000000e+00  0.0000000000000000e+00  0.0000000000000000e+00  0.0000000000000000e+00  0.0000000000000000e+00  0.0000000000000000e+00  0.0000000000000000e+00  0.0000000000000000e+00  0.0000000000000000e+00  0.0000000000000000e+00  0.0000000000000000e+00  0.0000000000000000e+00  0.0000000000000000e+00  0.0000000000000000e+00  0.0000000000000000e+00  0.0000000000000000e+00  0.0000000000000000e+00  0.0000000000000000e+00  0.0000000000000000e+00  0.0000000000000000e+00  0.0000000000000000e+00  0.0000000000000000e+00  0.0000000000000000e+00  0.0000000000000000e+00  0.0000000000000000e+00  0.0000000000000000e+00  0.0000000000000000e+00  0.0000000000000000e+00  -2.5668074441952391e-18  4.9214051640606773e-07  1.9399884219252555e-06  4.7590822644696009e-06  9.2971102383319323e-06  1.5816561857918995e-05  2.4480705588298288e-05  3.5343528230853932e-05  4.8344085980881625e-05  6.3305532369167296e-05  7.9938900196356279e-05  9.7851526176416222e-05  1.1655982397085518e-04  1.3550593998930927e-04  1.5407767305040707e-04  1.7163090950952207e-04  1.8751372470543026e-04  2.0109123343760749e-04  2.1177023932295437e-04  2.1902273663777693e-04  2.2240735861208210e-04  2.2158794176877525e-04  2.1634848425199904e-04  2.0660391369332296e-04  1.9240624313373033e-04  1.7394587866214500e-04  1.5154804994503147e-04  1.2566457569217231e-04  9.6861494793642019e-05  6.5803644513542274e-05  3.3238590000551862e-05  0.0000000000000000e+00  0.0000000000000000e+00  -4.9214051641612349e-07  -9.8532746443703240e-18  2.4027387491565873e-06  7.5475065427273298e-06  1.6130943381723200e-05  2.8680155656897751e-05  4.5524678474270730e-05  6.6776354675188943e-05  9.2318008754392210e-05  1.2180143801662665e-04  1.5465487306331663e-04  1.9009968628773408e-04  2.2717576332316401e-04  2.6477461157376142e-04  3.0167897480857538e-04  3.3660746489235779e-04  3.6826252093510479e-04  3.9537987021382825e-04  4.1677759946438277e-04  4.3140295222676489e-04  4.3837504779791587e-04  4.3702186726791428e-04  4.2691006687582624e-04  4.0786645122032933e-04  3.7999025998798099e-04  3.4365578287202838e-04  2.9950521117277137e-04  2.4843205982637008e-04  1.9155596066672235e-04  1.3019016084896351e-04  6.5803644513542437e-05  0.0000000000000000e+00  0.0000000000000000e+00  -1.9399884219398333e-06  -2.4027387491851561e-06  -2.0699713719795876e-17  6.5159425027272099e-06  1.8192499732259308e-05  3.5824766768185676e-05  5.9913575772406295e-05  9.0635371270260495e-05  1.2782519531967442e-04  1.7097355238580446e-04  2.1923737803127160e-04  2.7146478222451825e-04  3.2623269783030084e-04  3.8189605805246572e-04  4.3664667251960479e-04  4.8857958770865653e-04  5.3576441825240861e-04  5.7631893293887495e-04  6.0848208079653768e-04  6.3068365252840039e-04  6.4160789057705913e-04  6.4024858308497348e-04  6.2595349493527641e-04  5.9845639146589142e-04  5.5789538305319841e-04  5.0481684516447644e-04  4.4016473081667611e-04  3.6525567092787650e-04  2.8174082641113391e-04  1.9155596066672311e-04  9.6861494793642615e-05  0.0000000000000000e+00  0.0000000000000000e+00  -4.7590822644881281e-06  -7.5475065427636268e-06  -6.5159425027797675e-06  -3.3314853138597165e-17  1.3400747652486554e-05  3.4753797806948784e-05  6.4738089748428743e-05  1.0360400338535602e-04  1.5115066947441006e-04  2.0672160066211479e-04  2.6921893745100115e-04  3.3713587593887500e-04  4.0860613297529977e-04  4.8146863658583654e-04  5.5334503080229063e-04  6.2172707745026970e-04  6.8407064252583229e-04  7.3789268682990553e-04  7.8086754997004322e-04  8.1091882889011647e-04  8.2630330651900800e-04  8.2568367728791479e-04  8.0818723330257337e-04  7.7344820222758834e-04  7.2163204552967166e-04  6.5344070993540899e-04  5.7009854838242910e-04  4.7331935707095092e-04  3.6525567092787856e-04  2.4843205982637241e-04  1.2566457569217372e-04  0.0000000000000000e+00  0.0000000000000000e+00  -9.2971102383536773e-06  -1.6130943381765789e-05  -1.8192499732320905e-05  -1.3400747652564486e-05  -4.5455355931671847e-17  2.3354653523056092e-05  5.7528387780273850e-05  1.0285696952260835e-04  1.5911843991836994e-04  2.2552739394513072e-04  3.0075221983681070e-04  3.8295476738104572e-04  4.6985103845555029e-04  5.5879067070814363e-04  6.4685224750978920e-04  7.3095084273860130e-04  8.0795372172785883e-04  8.7479978870896760e-04  9.2861820919068808e-04  9.6684164934671927e-04  9.8730976331013647e-04  9.8835891623726656e-04  9.6889464255311790e-04  9.2844398532462564e-04  8.6718561916053624e-04  7.8595649547006014e-04  6.8623463090752151e-04  5.7009854838243343e-04  4.4016473081668180e-04  2.9950521117277635e-04  1.5154804994503432e-04  0.0000000000000000e+00  0.0000000000000000e+00  -1.5816561857943111e-05  -2.8680155656944934e-05  -3.5824766768253825e-05  -3.4753797807034782e-05  -2.3354653523156025e-05  -5.4640294101675654e-17  3.6370418045592344e-05  8.6190718676770940e-05  1.4923502370591964e-04  2.2461026549000957e-04  3.1077609143852252e-04  4.0559124461906964e-04  5.0638476730295633e-04  6.1004940473768140e-04  7.1315371639272857e-04  8.1206866504500885e-04  9.0310387885600863e-04  9.8264839032998646e-04  1.0473104639483564e-03  1.0940511389115298e-03  1.1203063343923989e-03  1.1240927836591937e-03  1.1040936643183384e-03  1.0597205515679715e-03  9.9114921014044994e-04  8.9932772342823442e-04  7.8595649547006752e-04  6.5344070993542005e-04  5.0481684516448760e-04  3.4365578287203727e-04  1.7394587866214993e-04  0.0000000000000000e+00  0.0000000000000000e+00  -2.4480705588323821e-05  -4.5524678474320630e-05  -5.9913575772478219e-05  -6.4738089748519207e-05  -5.7528387780378421e-05  -3.6370418045705900e-05  -5.8433489211400215e-17  5.2129097291179699e-05  1.1980588373559608e-04  2.0205336503952833e-04  2.9715074783214965e-04  4.0268593003949134e-04  5.1563639524163487e-04  6.3247552205789232e-04  7.4930032529925525e-04  8.6197580315060924e-04  9.6629040658112724e-04  1.0581166990128472e-03  1.1335710534127116e-03  1.1891662490741246e-03  1.2219510809927362e-03  1.2296315713960495e-03  1.2106690573713526e-03  1.1643512942463071e-03  1.0908337278202579e-03  9.9114921014046122e-04  8.6718561916055434e-04  7.2163204552969182e-04  5.5789538305321706e-04  3.7999025998799508e-04  1.9240624313373789e-04  0.0000000000000000e+00  0.0000000000000000e+00  -3.5343528230879885e-05  -6.6776354675239589e-05  -9.0635371270333232e-05  -1.0360400338544709e-04  -1.0285696952271295e-04  -8.6190718676883426e-05  -5.2129097291293865e-05  -5.4671539964935727e-17  7.0020122578011418e-05  1.5689578350512107e-04  2.5875657374193500e-04  3.7295509634694161e-04  4.9615663207336108e-04  6.2445721220281947e-04  7.5352566505583300e-04  8.7876426225651141e-04  9.9548185584612671e-04  1.0990728961751141e-03  1.1851954725978818e-03  1.2499415340469925e-03  1.2899927241448298e-03  1.3027557950704850e-03  1.2864723256470140e-03  1.2402984327740561e-03  1.1643512942463236e-03  1.0597205515679986e-03  9.2844398532465774e-04  7.7344820222762065e-04  5.9845639146591972e-04  4.0786645122035015e-04  2.0660391369333391e-04  0.0000000000000000e+00  0.0000000000000000e+00  -4.8344085980906961e-05  -9.2318008754441554e-05  -1.2782519531974508e-04  -1.5115066947449793e-04  -1.5911843991846985e-04  -1.4923502370602564e-04  -1.1980588373570153e-04  -7.0020122578109376e-05  -4.1743978294496318e-17  8.9186799193293679e-05  1.9555277912999984e-04  3.1625329308542101e-04  4.4768397680553396e-04  5.8560932984473644e-04  7.2531760561999074e-04  8.6179614129595634e-04  9.8992045339666313e-04  1.1046498753120152e-03  1.2012222399315515e-03  1.2753401251491094e-03  1.3233414815382923e-03  1.3423480386491682e-03  1.3303857170549114e-03  1.2864723256470353e-03  1.2106690573713899e-03  1.1040936643183852e-03  9.6889464255316767e-04  8.0818723330262042e-04  6.2595349493531609e-04  4.2691006687585491e-04  2.1634848425201403e-04  0.0000000000000000e+00  0.0000000000000000e+00  -6.3305532369191067e-05  -1.2180143801667279e-04  -1.7097355238587011e-04  -2.0672160066219564e-04  -2.2552739394522147e-04  -2.2461026549010387e-04  -2.0205336503961919e-04  -1.5689578350520125e-04  -8.9186799193356021e-05  -1.8742161434324367e-17  1.0859341262049720e-04  2.3359125221081867e-04  3.7116447509933943e-04  5.1679491845528730e-04  6.6544145196907611e-04  8.1172823725261128e-04  9.5014792098249083e-04  1.0752719944457912e-03  1.1819602564540565e-03  1.2655613300891553e-03  1.3220965060763306e-03  1.3484198045184853e-03  1.3423480386491962e-03  1.3027557950705338e-03  1.2296315713961126e-03  1.1240927836592639e-03  9.8835891623733681e-04  8.2568367728797908e-04  6.4024858308502671e-04  4.3702186726795206e-04  2.2158794176879484e-04  0.0000000000000000e+00  0.0000000000000000e+00  -7.9938900196377570e-05  -1.5465487306335775e-04  -2.1923737803132955e-04  -2.6921893745107152e-04  -3.0075221983688806e-04  -3.1077609143860020e-04  -2.9715074783222045e-04  -2.5875657374199165e-04  -1.9555277913003484e-04  -1.0859341262050353e-04  1.4410997934299300e-17  1.2710826740007898e-04  2.6872422666442250e-04  4.2009820616127006e-04  5.7591375501492032e-04  7.3048695829711682e-04  8.7798173415227468e-04  1.0126328774518445e-03  1.1289682986396921e-03  1.2220219184701136e-03  1.2875290190481161e-03  1.3220965060763644e-03  1.3233414815383530e-03  1.2899927241449101e-03  1.2219510809928285e-03  1.1203063343924952e-03  9.8730976331022928e-04  8.2630330651909138e-04  6.4160789057712711e-04  4.3837504779796390e-04  2.2240735861210685e-04  0.0000000000000000e+00  0.0000000000000000e+00  -9.7851526176434192e-05  -1.9009968628776850e-04  -2.7146478222456606e-04  -3.3713587593893176e-04  -3.8295476738110573e-04  -4.0559124461912640e-04  -4.0268593003953747e-04  -3.7295509634696947e-04  -3.1625329308542329e-04  -2.3359125221078831e-04  -1.2710826740000954e-04  5.6901372362995491e-17  1.4359561276208326e-04  2.9875005068815677e-04  4.5992775108493270e-04  6.2119450641661702e-04  7.7644275962399502e-04  9.1962517351157390e-04  1.0449875171816838e-03  1.1472919226704879e-03  1.2220219184701532e-03  1.2655613300892280e-03  1.2753401251492079e-03  1.2499415340471085e-03  1.1891662490742497e-03  1.0940511389116556e-03  9.6684164934683777e-04  8.1091882889022088e-04  6.3068365252848453e-04  4.3140295222682381e-04  2.1902273663780726e-04  0.0000000000000000e+00  0.0000000000000000e+00  -1.1655982397086905e-04  -2.2717576332319039e-04  -3.2623269783033646e-04  -4.0860613297534026e-04  -4.6985103845558997e-04  -5.0638476730298842e-04  -5.1563639524165210e-04  -4.9615663207335610e-04  -4.4768397680549921e-04  -3.7116447509926809e-04  -2.6872422666430833e-04  -1.4359561276192106e-04  1.0706531097328070e-16  1.5700864250410345e-04  3.2173326433369490e-04  4.8804916171667575e-04  6.4963707430790532e-04  8.0022502252244019e-04  9.3382960917964407e-04  1.0449875171817285e-03  1.1289682986397758e-03  1.1819602564541718e-03  1.2012222399316905e-03  1.1851954725980358e-03  1.1335710534128717e-03  1.0473104639485138e-03  9.2861820919083358e-04  7.8086754997016986e-04  6.0848208079663873e-04  4.1677759946445324e-04  2.1177023932299050e-04  0.0000000000000000e+00  0.0000000000000000e+00  -1.3550593998931857e-04  -2.6477461157377845e-04  -3.8189605805248746e-04  -4.8146863658585871e-04  -5.5879067070816043e-04  -6.1004940473768617e-04  -6.3247552205787812e-04  -6.2445721220277860e-04  -5.8560932984466174e-04  -5.1679491845517205e-04  -4.2009820616110841e-04  -2.9875005068794367e-04  -1.5700864250383528e-04  1.6240637155921496e-16  1.6647565845087062e-04  3.3616426297719635e-04  5.0259652480896615e-04  6.5933570631924554e-04  8.0022502252248941e-04  9.1962517351166703e-04  1.0126328774519751e-03  1.0752719944459516e-03  1.1046498753121969e-03  1.0990728961753080e-03  1.0581166990130434e-03  9.8264839033017576e-04  8.7479978870914075e-04  7.3789268683005483e-04  5.7631893293899356e-04  3.9537987021391044e-04  2.0109123343764950e-04  0.0000000000000000e+00  0.0000000000000000e+00  -1.5407767305041135e-04  -3.0167897480858248e-04  -4.3664667251961178e-04  -5.5334503080229323e-04  -6.4685224750978172e-04  -7.1315371639270471e-04  -7.4930032529920776e-04  -7.5352566505575483e-04  -7.2531760561987452e-04  -6.6544145196891576e-04  -5.7591375501471020e-04  -4.5992775108466799e-04  -3.2173326433337256e-04  -1.6647565845048947e-04  2.1960657484669322e-16  1.7137206479758818e-04  3.4108416642526741e-04  5.0259652480901809e-04  6.4963707430800571e-04  7.7644275962413824e-04  8.7798173415245368e-04  9.5014792098269758e-04  9.8992045339688865e-04  9.9548185584636046e-04  9.6629040658135991e-04  9.0310387885622991e-04  8.0795372172805940e-04  6.8407064252600392e-04  5.3576441825254413e-04  3.6826252093519847e-04  1.8751372470547802e-04  0.0000000000000000e+00  0.0000000000000000e+00  -1.7163090950952117e-04  -3.3660746489235470e-04  -4.8857958770864829e-04  -6.2172707745025203e-04  -7.3095084273856899e-04  -8.1206866504495551e-04  -8.6197580315052803e-04  -8.7876426225639529e-04  -8.6179614129579881e-04  -8.1172823725240615e-04  -7.3048695829685856e-04  -6.2119450641630173e-04  -4.8804916171630073e-04  -3.3616426297676093e-04  -1.7137206479709357e-04  2.7524404109925980e-16  1.7137206479764152e-04  3.3616426297730108e-04  4.8804916171682787e-04  6.2119450641681022e-04  7.3048695829734374e-04  8.1172823725286368e-04  8.6179614129622425e-04  8.7876426225678441e-04  8.6197580315087704e-04  8.1206866504526104e-04  7.3095084273882833e-04  6.2172707745046280e-04  4.8857958770880832e-04  3.3660746489246236e-04  1.7163090950957533e-04  0.0000000000000000e+00  0.0000000000000000e+00  -1.8751372470542419e-04  -3.6826252093509146e-04  -5.3576441825238497e-04  -6.8407064252579456e-04  -8.0795372172780180e-04  -9.0310387885592623e-04  -9.6629040658101318e-04  -9.9548185584597427e-04  -9.8992045339646624e-04  -9.5014792098224298e-04  -8.7798173415197121e-04  -7.7644275962363246e-04  -6.4963707430748139e-04  -5.0259652480848086e-04  -3.4108416642472227e-04  -1.7137206479704039e-04  3.2567057633915328e-16  1.6647565845102696e-04  3.2173326433389699e-04  4.5992775108517398e-04  5.7591375501519311e-04  6.6544145196937156e-04  7.2531760562029844e-04  7.5352566505614265e-04  7.4930032529955536e-04  7.1315371639300905e-04  6.4685224751004030e-04  5.5334503080250335e-04  4.3664667251977116e-04  3.0167897480868971e-04  1.5407767305046526e-04  0.0000000000000000e+00  0.0000000000000000e+00  -2.0109123343759654e-04  -3.9537987021380511e-04  -5.7631893293883700e-04  -7.3789268682984872e-04  -8.7479978870888715e-04  -9.8264839032987696e-04  -1.0581166990127023e-03  -1.0990728961749281e-03  -1.1046498753117815e-03  -1.0752719944455043e-03  -1.0126328774515002e-03  -9.1962517351116895e-04  -8.0022502252197311e-04  -6.5933570631871656e-04  -5.0259652480842926e-04  -3.3616426297665674e-04  -1.6647565845033329e-04  3.6740370520623480e-16  1.5700864250435225e-04  2.9875005068844267e-04  4.2009820616158481e-04  5.1679491845562167e-04  5.8560932984507992e-04  6.2445721220316110e-04  6.3247552205822127e-04  6.1004940473798693e-04  5.5879067070841565e-04  4.8146863658606601e-04  3.8189605805264478e-04  2.6477461157388426e-04  1.3550593998937178e-04  0.0000000000000000e+00  0.0000000000000000e+00  -2.1177023932293889e-04  -4.1677759946435067e-04  -6.0848208079648629e-04  -7.8086754996996906e-04  -9.2861820919058660e-04  -1.0473104639482224e-03  -1.1335710534125395e-03  -1.1851954725976659e-03  -1.2012222399312856e-03  -1.1819602564537362e-03  -1.1289682986393131e-03  -1.0449875171812432e-03  -9.3382960917914111e-04  -8.0022502252192476e-04  -6.4963707430738186e-04  -4.8804916171614937e-04  -3.2173326433317058e-04  -1.5700864250358645e-04  3.9749406856734669e-16  1.4359561276240825e-04  2.6872422666477356e-04  3.7116447509970702e-04  4.4768397680590758e-04  4.9615663207372971e-04  5.1563639524198734e-04  5.0638476730328202e-04  4.6985103845583918e-04  4.0860613297554274e-04  3.2623269783049015e-04  2.2717576332329374e-04  1.1655982397092104e-04  0.0000000000000000e+00  0.0000000000000000e+00  -2.1902273663775752e-04  -4.3140295222672504e-04  -6.3068365252833762e-04  -8.1091882889002724e-04  -9.6684164934659957e-04  -1.0940511389113750e-03  -1.1891662490739292e-03  -1.2499415340467513e-03  -1.2753401251488169e-03  -1.2655613300888075e-03  -1.2220219184697070e-03  -1.1472919226700200e-03  -1.0449875171811990e-03  -9.1962517351107647e-04  -7.7644275962348978e-04  -6.2119450641610874e-04  -4.5992775108442621e-04  -2.9875005068765749e-04  -1.4359561276159594e-04  4.1377950125117972e-16  1.2710826740045911e-04  2.3359125221121251e-04  3.1625329308581794e-04  3.7295509634733057e-04  4.0268593003986143e-04  4.0559124461941019e-04  3.8295476738134664e-04  3.3713587593912740e-04  2.7146478222471460e-04  1.9009968628786838e-04  9.7851526176484418e-05  0.0000000000000000e+00  0.0000000000000000e+00  -2.2240735861205944e-04  -4.3837504779786974e-04  -6.4160789057698714e-04  -8.2630330651890685e-04  -9.8730976331000224e-04  -1.1203063343922276e-03  -1.2219510809925228e-03  -1.2899927241445694e-03  -1.3233414815379803e-03  -1.3220965060759633e-03  -1.2875290190476904e-03  -1.2220219184696675e-03  -1.1289682986392300e-03  -1.0126328774513697e-03  -8.7798173415179232e-04  -7.3048695829663153e-04  -5.7591375501443677e-04  -4.2009820616079334e-04  -2.6872422666395711e-04  -1.2710826739962947e-04  4.1496939436102072e-16  1.0859341262090868e-04  1.9555277913041176e-04  2.5875657374233659e-04  2.9715074783253010e-04  3.1077609143887136e-04  3.0075221983711818e-04  2.6921893745125849e-04  2.1923737803147147e-04  1.5465487306345321e-04  7.9938900196425587e-05  0.0000000000000000e+00  0.0000000000000000e+00  -2.2158794176875023e-04  -4.3702186726786332e-04  -6.4024858308489477e-04  -8.2568367728780528e-04  -9.8835891623712279e-04  -1.1240927836590115e-03  -1.2296315713958244e-03  -1.3027557950702126e-03  -1.3423480386488451e-03  -1.3484198045181073e-03  -1.3220965060759295e-03  -1.2655613300887351e-03  -1.1819602564536211e-03  -1.0752719944453438e-03  -9.5014792098203622e-04  -8.1172823725215396e-04  -6.6544145196862042e-04  -5.1679491845483779e-04  -3.7116447509890054e-04  -2.3359125221039475e-04  -1.0859341262009222e-04  4.0089803991818031e-16  8.9186799193711558e-05  1.5689578350552676e-04  2.0205336503991133e-04  2.2461026549035976e-04  2.2552739394543871e-04  2.0672160066237210e-04  1.7097355238600401e-04  1.2180143801676291e-04  6.3305532369236400e-05  0.0000000000000000e+00  0.0000000000000000e+00  -2.1634848425197256e-04  -4.2691006687577246e-04  -6.2595349493519358e-04  -8.0818723330245887e-04  -9.6889464255296915e-04  -1.1040936643181513e-03  -1.2106690573711225e-03  -1.2864723256467369e-03  -1.3303857170545851e-03  -1.3423480386488174e-03  -1.3233414815379198e-03  -1.2753401251487189e-03  -1.2012222399311466e-03  -1.1046498753115998e-03  -9.8992045339624094e-04  -8.6179614129553133e-04  -7.2531760561956693e-04  -5.8560932984431848e-04  -4.4768397680512598e-04  -3.1625329308502680e-04  -1.9555277912962316e-04  -8.9186799192938251e-05  3.7247707207030675e-16  7.0020122578412139e-05  1.1980588373597330e-04  1.4923502370626376e-04  1.5911843991867200e-04  1.5115066947466208e-04  1.2782519531986971e-04  9.2318008754525404e-05  4.8344085980949150e-05  0.0000000000000000e+00  0.0000000000000000e+00  -2.0660391369329610e-04  -4.0786645122027485e-04  -5.9845639146580783e-04  -7.7344820222747320e-04  -9.2844398532447613e-04  -1.0597205515677846e-03  -1.1643512942460790e-03  -1.2402984327737833e-03  -1.2864723256467156e-03  -1.3027557950701643e-03  -1.2899927241444894e-03  -1.2499415340466355e-03  -1.1851954725975121e-03  -1.0990728961747342e-03  -9.9548185584574030e-04  -8.7876426225612239e-04  -7.5352566505544551e-04  -6.2445721220243707e-04  -4.9615663207298768e-04  -3.7295509634658068e-04  -2.5875657374159028e-04  -1.5689578350479576e-04  -7.0020122577708723e-05  3.3177164400070829e-16  5.2129097291542608e-05 