<?xml version="1.0"?>
<VTKFile type="UnstructuredGrid"  version="0.1"  >
<UnstructuredGrid>
<Piece  NumberOfPoints="1089" NumberOfCells="2048">
<Points>
<DataArray  type="Float64"  NumberOfComponents="3"  format="ascii">0 0 0  0.03125 0 0  0.0625 0 0  0.09375 0 0  0.125 0 0  0.15625 0 0  0.1875 0 0  0.21875 0 0  0.25 0 0  0.28125 0 0  0.3125 0 0  0.34375 0 0  0.375 0 0  0.40625 0 0  0.4375 0 0  0.46875 0 0  0.5 0 0  0.53125 0 0  0.5625 0 0  0.59375 0 0  0.625 0 0  0.65625 0 0  0.6875 0 0  0.71875 0 0  0.75 0 0  0.78125 0 0  0.8125 0 0  0.84375 0 0  0.875 0 0  0.90625 0 0  0.9375 0 0  0.96875 0 0  1 0 0  0 0.03125 0  0.03125 0.03125 0  0.0625 0.03125 0  0.09375 0.03125 0  0.125 0.03125 0  0.15625 0.03125 0  0.1875 0.03125 0  0.21875 0.03125 0  0.25 0.03125 0  0.28125 0.03125 0  0.3125 0.03125 0  0.34375 0.03125 0  0.375 0.03125 0  0.40625 0.03125 0  0.4375 0.03125 0  0.46875 0.03125 0  0.5 0.03125 0  0.53125 0.03125 0  0.5625 0.03125 0  0.59375 0.03125 0  0.625 0.03125 0  0.65625 0.03125 0  0.6875 0.03125 0  0.71875 0.03125 0  0.75 0.03125 0  0.78125 0.03125 0  0.8125 0.03125 0  0.84375 0.03125 0  0.875 0.03125 0  0.90625 0.03125 0  0.9375 0.03125 0  0.96875 0.03125 0  1 0.03125 0  0 0.0625 0  0.03125 0.0625 0  0.0625 0.0625 0  0.09375 0.0625 0  0.125 0.0625 0  0.15625 0.0625 0  0.1875 0.0625 0  0.21875 0.0625 0  0.25 0.0625 0  0.28125 0.0625 0  0.3125 0.0625 0  0.34375 0.0625 0  0.375 0.0625 0  0.40625 0.0625 0  0.4375 0.0625 0  0.46875 0.0625 0  0.5 0.0625 0  0.53125 0.0625 0  0.5625 0.0625 0  0.59375 0.0625 0  0.625 0.0625 0  0.65625 0.0625 0  0.6875 0.0625 0  0.71875 0.0625 0  0.75 0.0625 0  0.78125 0.0625 0  0.8125 0.0625 0  0.84375 0.0625 0  0.875 0.0625 0  0.90625 0.0625 0  0.9375 0.0625 0  0.96875 0.0625 0  1 0.0625 0  0 0.09375 0  0.03125 0.09375 0  0.0625 0.09375 0  0.09375 0.09375 0  0.125 0.09375 0  0.15625 0.09375 0  0.1875 0.09375 0  0.21875 0.09375 0  0.25 0.09375 0  0.28125 0.09375 0  0.3125 0.09375 0  0.34375 0.09375 0  0.375 0.09375 0  0.40625 0.09375 0  0.4375 0.09375 0  0.46875 0.09375 0  0.5 0.09375 0  0.53125 0.09375 0  0.5625 0.09375 0  0.59375 0.09375 0  0.625 0.09375 0  0.65625 0.09375 0  0.6875 0.09375 0  0.71875 0.09375 0  0.75 0.09375 0  0.78125 0.09375 0  0.8125 0.09375 0  0.84375 0.09375 0  0.875 0.09375 0  0.90625 0.09375 0  0.9375 0.09375 0  0.96875 0.09375 0  1 0.09375 0  0 0.125 0  0.03125 0.125 0  0.0625 0.125 0  0.09375 0.125 0  0.125 0.125 0  0.15625 0.125 0  0.1875 0.125 0  0.21875 0.125 0  0.25 0.125 0  0.28125 0.125 0  0.3125 0.125 0  0.34375 0.125 0  0.375 0.125 0  0.40625 0.125 0  0.4375 0.125 0  0.46875 0.125 0  0.5 0.125 0  0.53125 0.125 0  0.5625 0.125 0  0.59375 0.125 0  0.625 0.125 0  0.65625 0.125 0  0.6875 0.125 0  0.71875 0.125 0  0.75 0.125 0  0.78125 0.125 0  0.8125 0.125 0  0.84375 0.125 0  0.875 0.125 0  0.90625 0.125 0  0.9375 0.125 0  0.96875 0.125 0  1 0.125 0  0 0.15625 0  0.03125 0.15625 0  0.0625 0.15625 0  0.09375 0.15625 0  0.125 0.15625 0  0.15625 0.15625 0  0.1875 0.15625 0  0.21875 0.15625 0  0.25 0.15625 0  0.28125 0.15625 0  0.3125 0.15625 0  0.34375 0.15625 0  0.375 0.15625 0  0.40625 0.15625 0  0.4375 0.15625 0  0.46875 0.15625 0  0.5 0.15625 0  0.53125 0.15625 0  0.5625 0.15625 0  0.59375 0.15625 0  0.625 0.15625 0  0.65625 0.15625 0  0.6875 0.15625 0  0.71875 0.15625 0  0.75 0.15625 0  0.78125 0.15625 0  0.8125 0.15625 0  0.84375 0.15625 0  0.875 0.15625 0  0.90625 0.15625 0  0.9375 0.15625 0  0.96875 0.15625 0  1 0.15625 0  0 0.1875 0  0.03125 0.1875 0  0.0625 0.1875 0  0.09375 0.1875 0  0.125 0.1875 0  0.15625 0.1875 0  0.1875 0.1875 0  0.21875 0.1875 0  0.25 0.1875 0  0.28125 0.1875 0  0.3125 0.1875 0  0.34375 0.1875 0  0.375 0.1875 0  0.40625 0.1875 0  0.4375 0.1875 0  0.46875 0.1875 0  0.5 0.1875 0  0.53125 0.1875 0  0.5625 0.1875 0  0.59375 0.1875 0  0.625 0.1875 0  0.65625 0.1875 0  0.6875 0.1875 0  0.71875 0.1875 0  0.75 0.1875 0  0.78125 0.1875 0  0.8125 0.1875 0  0.84375 0.1875 0  0.875 0.1875 0  0.90625 0.1875 0  0.9375 0.1875 0  0.96875 0.1875 0  1 0.1875 0  0 0.21875 0  0.03125 0.21875 0  0.0625 0.21875 0  0.09375 0.21875 0  0.125 0.21875 0  0.15625 0.21875 0  0.1875 0.21875 0  0.21875 0.21875 0  0.25 0.21875 0  0.28125 0.21875 0  0.3125 0.21875 0  0.34375 0.21875 0  0.375 0.21875 0  0.40625 0.21875 0  0.4375 0.21875 0  0.46875 0.21875 0  0.5 0.21875 0  0.53125 0.21875 0  0.5625 0.21875 0  0.59375 0.21875 0  0.625 0.21875 0  0.65625 0.21875 0  0.6875 0.21875 0  0.71875 0.21875 0  0.75 0.21875 0  0.78125 0.21875 0  0.8125 0.21875 0  0.84375 0.21875 0  0.875 0.21875 0  0.90625 0.21875 0  0.9375 0.21875 0  0.96875 0.21875 0  1 0.21875 0  0 0.25 0  0.03125 0.25 0  0.0625 0.25 0  0.09375 0.25 0  0.125 0.25 0  0.15625 0.25 0  0.1875 0.25 0  0.21875 0.25 0  0.25 0.25 0  0.28125 0.25 0  0.3125 0.25 0  0.34375 0.25 0  0.375 0.25 0  0.40625 0.25 0  0.4375 0.25 0  0.46875 0.25 0  0.5 0.25 0  0.53125 0.25 0  0.5625 0.25 0  0.59375 0.25 0  0.625 0.25 0  0.65625 0.25 0  0.6875 0.25 0  0.71875 0.25 0  0.75 0.25 0  0.78125 0.25 0  0.8125 0.25 0  0.84375 0.25 0  0.875 0.25 0  0.90625 0.25 0  0.9375 0.25 0  0.96875 0.25 0  1 0.25 0  0 0.28125 0  0.03125 0.28125 0  0.0625 0.28125 0  0.09375 0.28125 0  0.125 0.28125 0  0.15625 0.28125 0  0.1875 0.28125 0  0.21875 0.28125 0  0.25 0.28125 0  0.28125 0.28125 0  0.3125 0.28125 0  0.34375 0.28125 0  0.375 0.28125 0  0.40625 0.28125 0  0.4375 0.28125 0  0.46875 0.28125 0  0.5 0.28125 0  0.53125 0.28125 0  0.5625 0.28125 0  0.59375 0.28125 0  0.625 0.28125 0  0.65625 0.28125 0  0.6875 0.28125 0  0.71875 0.28125 0  0.75 0.28125 0  0.78125 0.28125 0  0.8125 0.28125 0  0.84375 0.28125 0  0.875 0.28125 0  0.90625 0.28125 0  0.9375 0.28125 0  0.96875 0.28125 0  1 0.28125 0  0 0.3125 0  0.03125 0.3125 0  0.0625 0.3125 0  0.09375 0.3125 0  0.125 0.3125 0  0.15625 0.3125 0  0.1875 0.3125 0  0.21875 0.3125 0  0.25 0.3125 0  0.28125 0.3125 0  0.3125 0.3125 0  0.34375 0.3125 0  0.375 0.3125 0  0.40625 0.3125 0  0.4375 0.3125 0  0.46875 0.3125 0  0.5 0.3125 0  0.53125 0.3125 0  0.5625 0.3125 0  0.59375 0.3125 0  0.625 0.3125 0  0.65625 0.3125 0  0.6875 0.3125 0  0.71875 0.3125 0  0.75 0.3125 0  0.78125 0.3125 0  0.8125 0.3125 0  0.84375 0.3125 0  0.875 0.3125 0  0.90625 0.3125 0  0.9375 0.3125 0  0.96875 0.3125 0  1 0.3125 0  0 0.34375 0  0.03125 0.34375 0  0.0625 0.34375 0  0.09375 0.34375 0  0.125 0.34375 0  0.15625 0.34375 0  0.1875 0.34375 0  0.21875 0.34375 0  0.25 0.34375 0  0.28125 0.34375 0  0.3125 0.34375 0  0.34375 0.34375 0  0.375 0.34375 0  0.40625 0.34375 0  0.4375 0.34375 0  0.46875 0.34375 0  0.5 0.34375 0  0.53125 0.34375 0  0.5625 0.34375 0  0.59375 0.34375 0  0.625 0.34375 0  0.65625 0.34375 0  0.6875 0.34375 0  0.71875 0.34375 0  0.75 0.34375 0  0.78125 0.34375 0  0.8125 0.34375 0  0.84375 0.34375 0  0.875 0.34375 0  0.90625 0.34375 0  0.9375 0.34375 0  0.96875 0.34375 0  1 0.34375 0  0 0.375 0  0.03125 0.375 0  0.0625 0.375 0  0.09375 0.375 0  0.125 0.375 0  0.15625 0.375 0  0.1875 0.375 0  0.21875 0.375 0  0.25 0.375 0  0.28125 0.375 0  0.3125 0.375 0  0.34375 0.375 0  0.375 0.375 0  0.40625 0.375 0  0.4375 0.375 0  0.46875 0.375 0  0.5 0.375 0  0.53125 0.375 0  0.5625 0.375 0  0.59375 0.375 0  0.625 0.375 0  0.65625 0.375 0  0.6875 0.375 0  0.71875 0.375 0  0.75 0.375 0  0.78125 0.375 0  0.8125 0.375 0  0.84375 0.375 0  0.875 0.375 0  0.90625 0.375 0  0.9375 0.375 0  0.96875 0.375 0  1 0.375 0  0 0.40625 0  0.03125 0.40625 0  0.0625 0.40625 0  0.09375 0.40625 0  0.125 0.40625 0  0.15625 0.40625 0  0.1875 0.40625 0  0.21875 0.40625 0  0.25 0.40625 0  0.28125 0.40625 0  0.3125 0.40625 0  0.34375 0.40625 0  0.375 0.40625 0  0.40625 0.40625 0  0.4375 0.40625 0  0.46875 0.40625 0  0.5 0.40625 0  0.53125 0.40625 0  0.5625 0.40625 0  0.59375 0.40625 0  0.625 0.40625 0  0.65625 0.40625 0  0.6875 0.40625 0  0.71875 0.40625 0  0.75 0.40625 0  0.78125 0.40625 0  0.8125 0.40625 0  0.84375 0.40625 0  0.875 0.40625 0  0.90625 0.40625 0  0.9375 0.40625 0  0.96875 0.40625 0  1 0.40625 0  0 0.4375 0  0.03125 0.4375 0  0.0625 0.4375 0  0.09375 0.4375 0  0.125 0.4375 0  0.15625 0.4375 0  0.1875 0.4375 0  0.21875 0.4375 0  0.25 0.4375 0  0.28125 0.4375 0  0.3125 0.4375 0  0.34375 0.4375 0  0.375 0.4375 0  0.40625 0.4375 0  0.4375 0.4375 0  0.46875 0.4375 0  0.5 0.4375 0  0.53125 0.4375 0  0.5625 0.4375 0  0.59375 0.4375 0  0.625 0.4375 0  0.65625 0.4375 0  0.6875 0.4375 0  0.71875 0.4375 0  0.75 0.4375 0  0.78125 0.4375 0  0.8125 0.4375 0  0.84375 0.4375 0  0.875 0.4375 0  0.90625 0.4375 0  0.9375 0.4375 0  0.96875 0.4375 0  1 0.4375 0  0 0.46875 0  0.03125 0.46875 0  0.0625 0.46875 0  0.09375 0.46875 0  0.125 0.46875 0  0.15625 0.46875 0  0.1875 0.46875 0  0.21875 0.46875 0  0.25 0.46875 0  0.28125 0.46875 0  0.3125 0.46875 0  0.34375 0.46875 0  0.375 0.46875 0  0.40625 0.46875 0  0.4375 0.46875 0  0.46875 0.46875 0  0.5 0.46875 0  0.53125 0.46875 0  0.5625 0.46875 0  0.59375 0.46875 0  0.625 0.46875 0  0.65625 0.46875 0  0.6875 0.46875 0  0.71875 0.46875 0  0.75 0.46875 0  0.78125 0.46875 0  0.8125 0.46875 0  0.84375 0.46875 0  0.875 0.46875 0  0.90625 0.46875 0  0.9375 0.46875 0  0.96875 0.46875 0  1 0.46875 0  0 0.5 0  0.03125 0.5 0  0.0625 0.5 0  0.09375 0.5 0  0.125 0.5 0  0.15625 0.5 0  0.1875 0.5 0  0.21875 0.5 0  0.25 0.5 0  0.28125 0.5 0  0.3125 0.5 0  0.34375 0.5 0  0.375 0.5 0  0.40625 0.5 0  0.4375 0.5 0  0.46875 0.5 0  0.5 0.5 0  0.53125 0.5 0  0.5625 0.5 0  0.59375 0.5 0  0.625 0.5 0  0.65625 0.5 0  0.6875 0.5 0  0.71875 0.5 0  0.75 0.5 0  0.78125 0.5 0  0.8125 0.5 0  0.84375 0.5 0  0.875 0.5 0  0.90625 0.5 0  0.9375 0.5 0  0.96875 0.5 0  1 0.5 0  0 0.53125 0  0.03125 0.53125 0  0.0625 0.53125 0  0.09375 0.53125 0  0.125 0.53125 0  0.15625 0.53125 0  0.1875 0.53125 0  0.21875 0.53125 0  0.25 0.53125 0  0.28125 0.53125 0  0.3125 0.53125 0  0.34375 0.53125 0  0.375 0.53125 0  0.40625 0.53125 0  0.4375 0.53125 0  0.46875 0.53125 0  0.5 0.53125 0  0.53125 0.53125 0  0.5625 0.53125 0  0.59375 0.53125 0  0.625 0.53125 0  0.65625 0.53125 0  0.6875 0.53125 0  0.71875 0.53125 0  0.75 0.53125 0  0.78125 0.531
[...]
<PointData  Scalars="theta_dt"> 
<DataArray  type="Float64"  Name="theta_dt"  format="ascii">1.2348929466366890e-03  1.7461228875072180e-02  2.4415065652421058e-02  1.1775958095731266e-02  2.1091123293252886e-03  1.4628091847836799e-03  2.3330862891287222e-02  1.7388030489249234e-02  3.1745151428411493e-02  2.0103458117615779e-02  7.6131159636077172e-03  1.5908553465178985e-03  2.2269260323486834e-03  1.4675119269151608e-02  2.8186113843107381e-02  3.7476828269695769e-02  4.0652472127415740e-02  3.5533669725068981e-02  2.3818098207419897e-02  1.5144320369089012e-02  1.2084549344430838e-02  1.3832370960538602e-02  1.4148909146967244e-03  2.5209301343616097e-03  1.6053770951845359e-03  1.4742523237356579e-02  8.5670881518694342e-03  1.4540453673877450e-02  2.3974037005585203e-02  1.6290364541368771e-02  1.9269057349823142e-02  2.5447519288129692e-02  2.9113361399954598e-02  8.4704984359720483e-03  1.2256349172127814e-03  1.5945482127130574e-02  2.5902573133382522e-02  1.2131416465103349e-02  1.9713609567019444e-03  1.5908553465179725e-03  2.1807066200577093e-02  1.7912889775776489e-02  3.3679250271571225e-02  1.8358348911260990e-02  7.5560402051051906e-03  1.7488454381888610e-03  2.4014175451491974e-03  1.5282890602890450e-02  2.8774816047483831e-02  3.8259578653030459e-02  4.2336097776482708e-02  3.8317921961386753e-02  2.6183507185335339e-02  1.5030782945489686e-02  1.1035532892025775e-02  1.4675119269150867e-02  1.4575995260291447e-03  2.3562819164988117e-03  1.7459028570629910e-03  1.3779652372850715e-02  8.8256864892594274e-03  1.5426342490413216e-02  2.1892936706961602e-02  1.6168235190269192e-02  2.1182694654292750e-02  2.7441467929936545e-02  1.5636202358426530e-02  9.2507914262919960e-03  1.2626308189964215e-03  1.4518252783652994e-02  2.6975330439937203e-02  1.2904794395774691e-02  1.8173546163083947e-03  1.7488454381889410e-03  2.0103458117616286e-02  1.9054836692443986e-02  3.5074079334385416e-02  1.6715151543188294e-02  7.7841199679900570e-03  1.9237372397711593e-03  2.5477258375034028e-03  1.5602092868135180e-02  3.4391238476622794e-02  3.8850428438683235e-02  4.3220340074815976e-02  4.0652472127415427e-02  2.8801966566244813e-02  1.5484488499870531e-02  1.0047777473980887e-02  1.5282890602889680e-02  1.5505215115557839e-03  2.1722048434180017e-03  1.9192909360229867e-03  1.2703160608811544e-02  9.3883240982683708e-03  1.6065225798831646e-02  1.9933369637496298e-02  1.6656274844421896e-02  2.3301052028569118e-02  1.0014782388123722e-02  1.4414673498028016e-02  9.9756401941126661e-03  1.3431235473440339e-03  1.3298133784858420e-02  2.7538743920141304e-02  1.4034408160534802e-02  1.6595965702261588e-03  1.9237372397712474e-03  1.8358348911261452e-02  2.0722790876982439e-02  3.5806645304123606e-02  1.5310404410769031e-02  8.2803577000190223e-03  2.1009497963588781e-03  2.6532401234087514e-03  2.5865458942569527e-02  3.2145061143864471e-02  3.6313010317313821e-02  3.8850428438682950e-02  4.2336097776482388e-02  3.1455172016779949e-02  1.6471624808971932e-02  9.2033587705493015e-03  1.5602092868134394e-02  1.6862455214310234e-03  1.9836435198805572e-03  2.1112279947428586e-03  1.1600444727864903e-02  1.0210125655440440e-02  1.6400768112121860e-02  1.8258162340369682e-02  1.7718112545643903e-02  2.0847040910033699e-03  1.0653224873527673e-02  1.3163387312296385e-02  1.0583414083700834e-02  1.4606930955539622e-03  1.2387735500026942e-02  2.4754363295352275e-02  1.5428185059662588e-02  1.5110513644759104e-03  2.1009497963589748e-03  1.6715151543188714e-02  2.2780800511547145e-02  2.9921886993036394e-02  1.4262244861380885e-02  9.0051740549499711e-03  2.2655704002583041e-03  2.7086563584415471e-03  2.4176121478968662e-02  2.9633829899447611e-02  3.3476171224690890e-02  3.6313010317313550e-02  4.3220340074815643e-02  3.3919852240046983e-02  1.7913459025119625e-02  8.5732912607054002e-03  2.4347901899071140e-03  1.8537089461187308e-03  1.8060939032555681e-03  2.3057119932604789e-03  1.0562125849765366e-02  1.1224107656887560e-02  2.7822823668223508e-02  1.7008197499605804e-02  9.5543147256611034e-04  1.0114272268782604e-02  1.1585748793487361e-02  1.1985174419021473e-02  1.1021727093304956e-02  1.6057565902172809e-03  1.1864909679122139e-02  2.3137594252310094e-02  1.6971067593080674e-02  1.3840620837804114e-03  2.2655704002584082e-03  1.5310404410769415e-02  2.5058975103738390e-02  2.7967614123136704e-02  1.3660305154355302e-02  9.8994906108635043e-03  2.4036020962203788e-03  1.4024600255757172e-02  2.2287438444424438e-02  2.7061423248088311e-02  3.0570224682761021e-02  3.3476171224690640e-02  3.4391238476622038e-02  3.5986446476510732e-02  1.9692469945073694e-02  8.2114545035979862e-03  2.2757679860888596e-03  2.0390875336808618e-03  1.6543091452817700e-03  2.4863768056260630e-03  9.6744811304594475e-03  1.2346565002975081e-02  2.6005645845465646e-02  7.7615349074257644e-03  1.0163402392609950e-03  9.4536839877607300e-03  1.2736345871949776e-02  1.0977936204449253e-02  1.1251929634598210e-02  1.7663389131792149e-03  1.1775958095731457e-02  2.1330042873048478e-02  1.8534423655445290e-02  1.2893083561100894e-03  2.4036020962204894e-03  1.4262244861381241e-02  2.7367380301596779e-02  2.5782732716208026e-02  1.3557893437288639e-02  1.0889480755146340e-02  2.5031474849156626e-03  1.3108618727005554e-02  2.0352745726988437e-02  2.4639241401970106e-02  2.7833981190336095e-02  3.0570224682760765e-02  3.2145061143863743e-02  3.7476828269694951e-02  2.1661798663948899e-02  8.1498929831322290e-03  2.0979808091993006e-03  2.2269260323485476e-03  1.5410541402704346e-03  2.6378613091498568e-03  9.0121602988076071e-03  1.3483916978088865e-02  1.0721350275064646e-02  7.1551895383213781e-03  1.1053049983062611e-03  8.7151448231077653e-03  1.4010033315379531e-02  1.0226380049787929e-02  1.8739243366238038e-03  1.9290521092090939e-03  1.2131416465103542e-02  1.9478458236618087e-02  1.9986694442864911e-02  1.2348929466366473e-03  2.5031474849157771e-03  1.3660305154355642e-02  2.9511760276883216e-02  2.3544626020096205e-02  1.3967139687501250e-02  1.1892607733528170e-02  2.5554288476622891e-03  1.2084549344431445e-02  1.8531036249012110e-02  2.2568551009784672e-02  2.5494803758416850e-02  2.7833981190335880e-02  2.9633829899446951e-02  3.8259578653029619e-02  2.3657259708297892e-02  8.3958982462955887e-03  1.9158626082674325e-03  2.4014175451490508e-03  1.4760137706287140e-03  2.7471085634089894e-03  8.6318010227850149e-03  4.8619532002344710e-03  1.1708989258724737e-02  6.5340731580705259e-03  1.2150743990182783e-03  7.9586143109669893e-03  1.5300622160035292e-02  9.7947744876250072e-03  1.7515336768314928e-03  2.0802036139817553e-03  1.2904794395774898e-02  1.7735003448650102e-02  2.1204399851758801e-02  1.2256349172127391e-03  2.5554288476624062e-03  1.3557893437288977e-02  3.1309787970650739e-02  2.1437221498290499e-02  1.4857544993426538e-02  1.2824456876437421e-02  2.4347901899072640e-03  1.1035532892026332e-02  1.6973681536175823e-02  2.1023494352749517e-02  2.3749414067706549e-02  2.5494803758416645e-02  2.7061423248087725e-02  2.5865458942568587e-02  2.5510931979065614e-02  8.9311368501738195e-03  1.7443798452634615e-03  2.5477258375032480e-03  1.4649480511622680e-03  2.8044853580938573e-03  1.3751904128354380e-03  4.8255029914062242e-03  1.2626450916382495e-02  5.9492290706183015e-03  1.3365868815169671e-03  7.2462640798813928e-03  1.6499507380608971e-02  9.7213427697955771e-03  1.6147006474829966e-03  2.2069416896344047e-03  1.4034408160535023e-02  1.6244547608416347e-02  2.2082581905524160e-02  1.2626308189963781e-03  1.3002679128714270e-02  1.3967139687501604e-02  3.2606485547344632e-02  1.9635629969254546e-02  1.6158091660067927e-02  1.3605797210088201e-02  2.2757679860889992e-03  1.0047777473981397e-02  1.5811653028430978e-02  2.0136195322733925e-02  2.2747067278341419e-02  2.3749414067706368e-02  2.4639241401969568e-02  2.4176121478967794e-02  2.7065205995994015e-02  9.7129187841979558e-03  1.5977815581254427e-03  2.6532401234085901e-03  1.5091676417253238e-03  6.8654694193973874e-03  1.2558150578149475e-03  4.9711612394045040e-03  1.3395727577911734e-02  5.4492537963610910e-03  1.4597117935259503e-03  6.6372855336405559e-03  1.7504753117410871e-02  1.0014782388123632e-02  1.4745342667069217e-03  2.2983423705823626e-03  1.5428185059662841e-02  1.5132436050522075e-02  2.2543804219407795e-02  1.3431235473439884e-03  1.2153441810788061e-02  1.4857544993426907e-02  3.3287512737738410e-02  1.8291362861192425e-02  1.7762774567404282e-02  1.4169282478268484e-02  2.0979808091994281e-03  9.2033587705497664e-03  1.5144320369089555e-02  1.9985233663027999e-02  2.2576531833350778e-02  2.2747067278341256e-02  2.2568551009784180e-02  2.2287438444423633e-02  2.8186113843106375e-02  1.0677522468918186e-02  1.4883964659323538e-03  2.7086563584413823e-03  7.8429555505917237e-03  7.0088633261904893e-03  1.1434110498204258e-03  5.2880728221057797e-03  1.3950512794107141e-02  5.0761945844386442e-03  1.5740879853729968e-03  6.1828929501756948e-03  1.8229713981701895e-02  1.0653224873527574e-02  1.3425533986071983e-03  2.3463461226251258e-03  1.6971067593080952e-02  1.4493769822914426e-02  1.1691319054842018e-02  1.4606930955539128e-03  1.1203992604085321e-02  1.6158091660068333e-02  3.2186315716376070e-02  1.7519373759281944e-02  1.9539125740216212e-02  1.4465225646447699e-02  1.9158626082675476e-03  8.5732912607058356e-03  1.5030782945490231e-02  2.0588489764283568e-02  2.3258006506266662e-02  2.2576531833350611e-02  2.1023494352749063e-02  2.0352745726987708e-02  2.8774816047482801e-02  1.1745319027863094e-02  1.4255785195747505e-03  4.7966190356309949e-03  8.4574928809612367e-03  1.2810946741725383e-03  1.0473183886643687e-03  5.7509612390541634e-03  1.4241886684093789e-02  4.8619532002344163e-03  1.6699905599254314e-03  5.9219432324298608e-03  1.8610464335082177e-02  1.1585748793487257e-02  1.2297247453975455e-03  1.1691319054842332e-02  1.8534423655445591e-02  1.4385109596253205e-02  1.0927729925335028e-02  1.6057565902172267e-03  1.0231414128932957e-02  1.7762774567404729e-02  3.0084147373812018e-02  1.7388030489249008e-02  2.1339048491789348e-02  2.2970551690337021e-03  1.7443798452635680e-03  8.2114545035983921e-03  1.5484488499871085e-02  2.1901006209115236e-02  2.4740704672230905e-02  2.3258006506266492e-02  2.0136195322733499e-02  1.8531036249011458e-02  1.4024600255756458e-02  1.2827284885691785e-02  8.8723873038728293e-04  5.2763008453135156e-03  8.9727724263742419e-03  1.1974231942925753e-03  9.7561833810553308e-04  6.3220973233895942e-03  1.2801921467865155e-02  4.8255029914061722e-03  1.7391533633972040e-03  5.8775462465681565e-03  1.9003076615959163e-02  1.2736345871949660e-02  1.1455370452933785e-03  1.0927729925335318e-02  1.9986694442865237e-02  1.4819325441686300e-02  1.0074035583419363e-02  1.7663389131791550e-03  9.3156328214967516e-03  1.9539125740216701e-02  2.7733918500124591e-02  1.7912889775776264e-02  2.3011076569492844e-02  2.1470287820431313e-03  1.5977815581255407e-03  8.1498929831326419e-03  1.6471624808972535e-02  2.3818098207420414e-02  2.6906368044346898e-02  2.4740704672230718e-02  1.9985233663027561e-02  1.6973681536175213e-02  1.3108618727004894e-02  6.4853277815287791e-04  9.7535166199651615e-04  5.7623478702363050e-03  9.3443805724406324e-03  1.1038782940405844e-03  9.3444225241104168e-04  6.9543332926307062e-03  1.1965796132151615e-02  4.9711612394044476e-03  1.7754777543536754e-03  6.0549605161953068e-03  1.7761938412214271e-02  1.4010033315379405e-02  1.0971895207533956e-03  1.0074035583419631e-02  2.1204399851759141e-02  1.5764057598644611e-02  9.1995446307227106e-03  1.9290521092090280e-03  8.5327438085639820e-03  2.1339048491789889e-02  2.5326436353535535e-02  1.9054836692443743e-02  2.4413044888128250e-02  1.9792989483371501e-03  1.4883964659324447e-03  8.3958982462960120e-03  1.7913459025120256e-02  2.6183507185335915e-02  2.9578477462191551e-02  2.6906368044346686e-02  2.0588489764283117e-02  1.5811653028430420e-02  3.1595687908610708e-03  7.1293948445478510e-04  1.0728908759361521e-03  6.2138585098150687e-03  9.5395496359074444e-03  1.0080545724522362e-03  9.2743671084460390e-04  7.5949588191692374e-03  1.1031006150670528e-02  5.2880728221057233e-03  1.8739243366238481e-03  6.4409643144971865e-03  1.6374343145167353e-02  1.5300622160035152e-02  1.0889638580395525e-03  9.1995446307229587e-03  2.2082581905524517e-02  1.7143955325471676e-02  8.3761226771613927e-03  2.0802036139816846e-03  7.9485870047673410e-03  2.3011076569493430e-02  2.3059547661096372e-02  2.0722790876982165e-02  2.5424113253580908e-02  1.8074830947330969e-03  1.4255785195748368e-03  8.9311368501742653e-03  1.9692469945074398e-02  2.8801966566245448e-02  3.2536447960019754e-02  2.9578477462191326e-02  2.1901006209114750e-02  3.7957015884811361e-03  3.4755387822567440e-03  7.8423639162148188e-04  1.1717244022273518e-03  6.5924428294549938e-03  6.3002128770694148e-03  9.1782681676822072e-04  9.5543147256612574e-04  8.1900642850731634e-03  1.0073444010054363e-02  5.7509612390541026e-03  1.7515336768315340e-03  7.0047704259968762e-03  1.4952945055173824e-02  1.6499507380608822e-02  1.1218343314343385e-03  8.3761226771616164e-03  2.2543804219408159e-02  1.8846545746029227e-02  7.6721904225759184e-03  2.2069416896343293e-03  7.6131159636079904e-03  2.4413044888128864e-02  2.1121615278723728e-02  2.2780800511546847e-02  2.5955127624700383e-02  1.6457010369643006e-03  1.4148909146968112e-03  9.7129187841984450e-03  2.1661798663949672e-02  3.1455172016780643e-02  3.5533669725069252e-02  3.2536447960019498e-02  1.0204404794389563e-03  4.0931150196829146e-03  3.7957015884811283e-03  8.5647938461199161e-04  1.2635352484611146e-03  6.8654694193974264e-03  5.8887303023536309e-03  8.4069233278933784e-04  1.0163402392610111e-03  8.6890505285278710e-03  9.1718021050682559e-03  6.3220973233895248e-03  1.6147006474830363e-03  7.7004240717916490e-03  1.3614554545310183e-02  1.7504753117410714e-02  1.1933512821792468e-03  7.6721904225761292e-03  2.4754363295352418e-02  2.0731278534388029e-02  7.1469476242543451e-03  2.2983423705822846e-03  7.5560402051054734e-03  2.5424113253581546e-02  1.9675616717292874e-02  2.5058975103738061e-02  1.3002679128713791e-02  1.5073957510970543e-03  1.4575995260292334e-03  1.0677522468918725e-02  2.3657259708298743e-02  3.3919852240047725e-02  3.8317921961387051e-02  8.0688684145282575e-04  1.0417536538277546e-03  4.3424913391608968e-03  4.0931150196829077e-03  9.2358910506632559e-04  1.3405171481332965e-03  7.0088633261905300e-03  5.4286918703521595e-03  7.8313802703300264e-04  1.1053049983062789e-03  9.0489083076566983e-03  8.4010006754238996e-03  6.9543332926306298e-03  1.4745342667069571e-03  8.4704984359721992e-03  1.2470382659863891e-02  1.8229713981701728e-02  1.2978106011890234e-03  7.1469476242545394e-03  2.3137594252310212e-02  2.2641021088858744e-02  6.8453098666023367e-03  2.3463461226250460e-03  7.7841199679903441e-03  2.5955127624701035e-02  1.8845205020013391e-02  2.7367380301596418e-02  1.2153441810787617e-02  1.4041985259402741e-03  1.5505215115558782e-03  1.1745319027863688e-02  2.5510931979066526e-02  3.5986446476511523e-02  3.3381220479645899e-04  7.3684388430248361e-04  4.1499972864847490e-03  4.5223359935412620e-03  4.3424913391608890e-03  9.7985951296442725e-04  1.3960347817605333e-03  8.5750271706687108e-03  4.9574465698675827e-03  7.5008559530612259e-04  1.2150743990182980e-03  9.2379060636996278e-03  7.8258630862320638e-03  7.5949588191691550e-03  1.3425533986072308e-03  9.2507914262921608e-03  1.1616652717873153e-02  1.8610464335082007e-02  1.4266980052526287e-03  6.8453098666025206e-03  2.1330042873048599e-02  2.4415065652420926e-02  6.7939903734160071e-03  2.2970551690338092e-03  8.2803577000193276e-03  2.9921886993036807e-02  1.8703921953290851e-02  2.9511760276882827e-02  1.1203992604084905e-02  1.3449341634555866e-03  1.6862455214311260e-03  1.2827284885692437e-02  2.7065205995994983e-02  1.5958779843537349e-03  3.3130960469457784e-04  6.7089133392778078e-04  3.8789506406290931e-03  4.6167906311386240e-03  4.5223359935412533e-03  1.0204404794389513e-03  1.4251927124345979e-03  8.0149708158609289e-03  4.5137213092058988e-03  7.4446218112215882e-04  1.3365868815169886e-03  1.2801921467865209e-02  7.4955716223612931e-03  8.1900642850730732e-03  1.2297247453975754e-03  9.9756401941128413e-03  1.1126370535679744e-02  1.0114272268782433e-02  1.5693737266193547e-03  6.7939903734161866e-03  1.9478458236618187e-02  2.5902573133382383e-02  6.9990675926139417e-03  2.1470287820432310e-03  9.0051740549503042e-03  2.7967614123137072e-02  1.9268501543701362e-02  3.1309787970650323e-02  1.0231414128932576e-02  1.3348511517318553e-03  1.8537089461188429e-03  1.3832370960539296e-02  1.7811143300651797e-03  1.7428885072893014e-03  3.4131021533573936e-04  6.1450939356278041e-04  3.5759198888534733e-03  4.1499972864847403e-03  4.6167906311386144e-03  1.0417536538277496e-03  6.3002128770694556e-03  7.3888265678907885e-03  4.1343866050445937e-03  7.6693383997230213e-04  1.4597117935259739e-03  1.1965796132151660e-02  7.4393770973072548e-03  8.6890505285277739e-03  1.1455370452934060e-03  1.0583414083701021e-02  1.1042955802377413e-02  9.4536839877605652e-03  1.7139427065123137e-03  6.9990675926141300e-03  1.7735003448650182e-02  2.6975330439937061e-02  7.4452582272339970e-03  1.9792989483372408e-03  9.8994906108638685e-03  2.5782732716208363e-02  2.0496868725214872e-02  3.2606485547344202e-02  9.3156328214964133e-03  1.3751437555176175e-03  2.0390875336809854e-03  3.4131021533574001e-04  1.6419704057304147e-03  1.8794531025483506e-03  3.6306874524959118e-04  5.7243970867591407e-04  3.2655070890895734e-03  3.8789506406290857e-03  9.3642427867786989e-04  1.2810946741725507e-03  5.8887303023536690e-03  6.7474289937845492e-03  3.8513439965886217e-03  8.1582588055353054e-04  1.5740879853730219e-03  1.1031006150670569e-02  7.6639353736407375e-03  9.0489083076566012e-03  1.0971895207534219e-03  1.1021727093305152e-02  1.1376288430657052e-02  8.7151448231076144e-03  1.8482392441468932e-03  7.4452582272342017e-03  1.6244547608416444e-02  2.7538743920141159e-02  8.0969746295062196e-03  1.8074830947331787e-03  1.0889480755146739e-02  2.3544626020096507e-02  2.2291050355420807e-02  3.3287512737737966e-02  8.5327438085636715e-03  1.4628091847836121e-03  2.1284957919109510e-04  3.6306874524959183e-04  1.4994368348970758e-03  1.9939602920827637e-03  3.9484975931382179e-04  5.4827982403789146e-04  2.9732219451394357e-03  3.5759198888534655e-03  8.7526407969170804e-04  1.1974231942925863e-03  5.4286918703521925e-03  6.1434881046862257e-03  3.6887975742341231e-03  8.8723873038727469e-04  1.6699905599254579e-03  1.0073444010054399e-02  8.1525113364819199e-03  9.2379060636995271e-03  1.0889638580395785e-03  1.1251929634598409e-02  1.2101526940976959e-02  7.9586143109668470e-03  1.9608447042924588e-03  8.0969746295064347e-03  1.5132436050522146e-02  2.0264450743462066e-02  8.9010966175758245e-03  1.6457010369643756e-03  1.1892607733528609e-02  2.1437221498290790e-02  2.4504806054079072e-02  2.3330862891286636e-02  7.9485870047670514e-03  1.1453998022952138e-04  5.7012831657433450e-04  3.9484975931382250e-04  1.3652270171948533e-03  2.0765403300309999e-03  4.3406284666761035e-04  5.4416935376813886e-04  2.7233513417716389e-03  3.2655070890895681e-03  8.0688684145282163e-04  1.1038782940405948e-03  4.9574465698676096e-03  5.6271872338379027e-03  3.6611425482870443e-03  9.7535166199650726e-04  1.7391533633972316e-03  9.1718021050682889e-03  8.8661367334171935e-03  1.5959631812379992e-03  1.1218343314343651e-03  1.6728802031848771e-02  1.3160827150488143e-02  7.2462640798812627e-03  2.0420532573082921e-03  8.9010966175760656e-03  1.4493769822914504e-02  1.8940929057794872e-02  9.7912432191635153e-03  1.5073957510971223e-03  1.2824456876437894e-02  1.9635629969254807e-02  2.6955388355200581e-02  2.1807066200576521e-02  1.7883267350100903e-04  1.2184190520620131e-04  5.3289181803057261e-04  4.3406284666761100e-04  1.250492865