<?xml version="1.0"?>
<VTKFile type="UnstructuredGrid"  version="0.1"  >
<UnstructuredGrid>
<Piece  NumberOfPoints="1089" NumberOfCells="2048">
<Points>
<DataArray  type="Float64"  NumberOfComponents="3"  format="ascii">0 0 0  0.03125 0 0  0.0625 0 0  0.09375 0 0  0.125 0 0  0.15625 0 0  0.1875 0 0  0.21875 0 0  0.25 0 0  0.28125 0 0  0.3125 0 0  0.34375 0 0  0.375 0 0  0.40625 0 0  0.4375 0 0  0.46875 0 0  0.5 0 0  0.53125 0 0  0.5625 0 0  0.59375 0 0  0.625 0 0  0.65625 0 0  0.6875 0 0  0.71875 0 0  0.75 0 0  0.78125 0 0  0.8125 0 0  0.84375 0 0  0.875 0 0  0.90625 0 0  0.9375 0 0  0.96875 0 0  1 0 0  0 0.03125 0  0.03125 0.03125 0  0.0625 0.03125 0  0.09375 0.03125 0  0.125 0.03125 0  0.15625 0.03125 0  0.1875 0.03125 0  0.21875 0.03125 0  0.25 0.03125 0  0.28125 0.03125 0  0.3125 0.03125 0  0.34375 0.03125 0  0.375 0.03125 0  0.40625 0.03125 0  0.4375 0.03125 0  0.46875 0.03125 0  0.5 0.03125 0  0.53125 0.03125 0  0.5625 0.03125 0  0.59375 0.03125 0  0.625 0.03125 0  0.65625 0.03125 0  0.6875 0.03125 0  0.71875 0.03125 0  0.75 0.03125 0  0.78125 0.03125 0  0.8125 0.03125 0  0.84375 0.03125 0  0.875 0.03125 0  0.90625 0.03125 0  0.9375 0.03125 0  0.96875 0.03125 0  1 0.03125 0  0 0.0625 0  0.03125 0.0625 0  0.0625 0.0625 0  0.09375 0.0625 0  0.125 0.0625 0  0.15625 0.0625 0  0.1875 0.0625 0  0.21875 0.0625 0  0.25 0.0625 0  0.28125 0.0625 0  0.3125 0.0625 0  0.34375 0.0625 0  0.375 0.0625 0  0.40625 0.0625 0  0.4375 0.0625 0  0.46875 0.0625 0  0.5 0.0625 0  0.53125 0.0625 0  0.5625 0.0625 0  0.59375 0.0625 0  0.625 0.0625 0  0.65625 0.0625 0  0.6875 0.0625 0  0.71875 0.0625 0  0.75 0.0625 0  0.78125 0.0625 0  0.8125 0.0625 0  0.84375 0.0625 0  0.875 0.0625 0  0.90625 0.0625 0  0.9375 0.0625 0  0.96875 0.0625 0  1 0.0625 0  0 0.09375 0  0.03125 0.09375 0  0.0625 0.09375 0  0.09375 0.09375 0  0.125 0.09375 0  0.15625 0.09375 0  0.1875 0.09375 0  0.21875 0.09375 0  0.25 0.09375 0  0.28125 0.09375 0  0.3125 0.09375 0  0.34375 0.09375 0  0.375 0.09375 0  0.40625 0.09375 0  0.4375 0.09375 0  0.46875 0.09375 0  0.5 0.09375 0  0.53125 0.09375 0  0.5625 0.09375 0  0.59375 0.09375 0  0.625 0.09375 0  0.65625 0.09375 0  0.6875 0.09375 0  0.71875 0.09375 0  0.75 0.09375 0  0.78125 0.09375 0  0.8125 0.09375 0  0.84375 0.09375 0  0.875 0.09375 0  0.90625 0.09375 0  0.9375 0.09375 0  0.96875 0.09375 0  1 0.09375 0  0 0.125 0  0.03125 0.125 0  0.0625 0.125 0  0.09375 0.125 0  0.125 0.125 0  0.15625 0.125 0  0.1875 0.125 0  0.21875 0.125 0  0.25 0.125 0  0.28125 0.125 0  0.3125 0.125 0  0.34375 0.125 0  0.375 0.125 0  0.40625 0.125 0  0.4375 0.125 0  0.46875 0.125 0  0.5 0.125 0  0.53125 0.125 0  0.5625 0.125 0  0.59375 0.125 0  0.625 0.125 0  0.65625 0.125 0  0.6875 0.125 0  0.71875 0.125 0  0.75 0.125 0  0.78125 0.125 0  0.8125 0.125 0  0.84375 0.125 0  0.875 0.125 0  0.90625 0.125 0  0.9375 0.125 0  0.96875 0.125 0  1 0.125 0  0 0.15625 0  0.03125 0.15625 0  0.0625 0.15625 0  0.09375 0.15625 0  0.125 0.15625 0  0.15625 0.15625 0  0.1875 0.15625 0  0.21875 0.15625 0  0.25 0.15625 0  0.28125 0.15625 0  0.3125 0.15625 0  0.34375 0.15625 0  0.375 0.15625 0  0.40625 0.15625 0  0.4375 0.15625 0  0.46875 0.15625 0  0.5 0.15625 0  0.53125 0.15625 0  0.5625 0.15625 0  0.59375 0.15625 0  0.625 0.15625 0  0.65625 0.15625 0  0.6875 0.15625 0  0.71875 0.15625 0  0.75 0.15625 0  0.78125 0.15625 0  0.8125 0.15625 0  0.84375 0.15625 0  0.875 0.15625 0  0.90625 0.15625 0  0.9375 0.15625 0  0.96875 0.15625 0  1 0.15625 0  0 0.1875 0  0.03125 0.1875 0  0.0625 0.1875 0  0.09375 0.1875 0  0.125 0.1875 0  0.15625 0.1875 0  0.1875 0.1875 0  0.21875 0.1875 0  0.25 0.1875 0  0.28125 0.1875 0  0.3125 0.1875 0  0.34375 0.1875 0  0.375 0.1875 0  0.40625 0.1875 0  0.4375 0.1875 0  0.46875 0.1875 0  0.5 0.1875 0  0.53125 0.1875 0  0.5625 0.1875 0  0.59375 0.1875 0  0.625 0.1875 0  0.65625 0.1875 0  0.6875 0.1875 0  0.71875 0.1875 0  0.75 0.1875 0  0.78125 0.1875 0  0.8125 0.1875 0  0.84375 0.1875 0  0.875 0.1875 0  0.90625 0.1875 0  0.9375 0.1875 0  0.96875 0.1875 0  1 0.1875 0  0 0.21875 0  0.03125 0.21875 0  0.0625 0.21875 0  0.09375 0.21875 0  0.125 0.21875 0  0.15625 0.21875 0  0.1875 0.21875 0  0.21875 0.21875 0  0.25 0.21875 0  0.28125 0.21875 0  0.3125 0.21875 0  0.34375 0.21875 0  0.375 0.21875 0  0.40625 0.21875 0  0.4375 0.21875 0  0.46875 0.21875 0  0.5 0.21875 0  0.53125 0.21875 0  0.5625 0.21875 0  0.59375 0.21875 0  0.625 0.21875 0  0.65625 0.21875 0  0.6875 0.21875 0  0.71875 0.21875 0  0.75 0.21875 0  0.78125 0.21875 0  0.8125 0.21875 0  0.84375 0.21875 0  0.875 0.21875 0  0.90625 0.21875 0  0.9375 0.21875 0  0.96875 0.21875 0  1 0.21875 0  0 0.25 0  0.03125 0.25 0  0.0625 0.25 0  0.09375 0.25 0  0.125 0.25 0  0.15625 0.25 0  0.1875 0.25 0  0.21875 0.25 0  0.25 0.25 0  0.28125 0.25 0  0.3125 0.25 0  0.34375 0.25 0  0.375 0.25 0  0.40625 0.25 0  0.4375 0.25 0  0.46875 0.25 0  0.5 0.25 0  0.53125 0.25 0  0.5625 0.25 0  0.59375 0.25 0  0.625 0.25 0  0.65625 0.25 0  0.6875 0.25 0  0.71875 0.25 0  0.75 0.25 0  0.78125 0.25 0  0.8125 0.25 0  0.84375 0.25 0  0.875 0.25 0  0.90625 0.25 0  0.9375 0.25 0  0.96875 0.25 0  1 0.25 0  0 0.28125 0  0.03125 0.28125 0  0.0625 0.28125 0  0.09375 0.28125 0  0.125 0.28125 0  0.15625 0.28125 0  0.1875 0.28125 0  0.21875 0.28125 0  0.25 0.28125 0  0.28125 0.28125 0  0.3125 0.28125 0  0.34375 0.28125 0  0.375 0.28125 0  0.40625 0.28125 0  0.4375 0.28125 0  0.46875 0.28125 0  0.5 0.28125 0  0.53125 0.28125 0  0.5625 0.28125 0  0.59375 0.28125 0  0.625 0.28125 0  0.65625 0.28125 0  0.6875 0.28125 0  0.71875 0.28125 0  0.75 0.28125 0  0.78125 0.28125 0  0.8125 0.28125 0  0.84375 0.28125 0  0.875 0.28125 0  0.90625 0.28125 0  0.9375 0.28125 0  0.96875 0.28125 0  1 0.28125 0  0 0.3125 0  0.03125 0.3125 0  0.0625 0.3125 0  0.09375 0.3125 0  0.125 0.3125 0  0.15625 0.3125 0  0.1875 0.3125 0  0.21875 0.3125 0  0.25 0.3125 0  0.28125 0.3125 0  0.3125 0.3125 0  0.34375 0.3125 0  0.375 0.3125 0  0.40625 0.3125 0  0.4375 0.3125 0  0.46875 0.3125 0  0.5 0.3125 0  0.53125 0.3125 0  0.5625 0.3125 0  0.59375 0.3125 0  0.625 0.3125 0  0.65625 0.3125 0  0.6875 0.3125 0  0.71875 0.3125 0  0.75 0.3125 0  0.78125 0.3125 0  0.8125 0.3125 0  0.84375 0.3125 0  0.875 0.3125 0  0.90625 0.3125 0  0.9375 0.3125 0  0.96875 0.3125 0  1 0.3125 0  0 0.34375 0  0.03125 0.34375 0  0.0625 0.34375 0  0.09375 0.34375 0  0.125 0.34375 0  0.15625 0.34375 0  0.1875 0.34375 0  0.21875 0.34375 0  0.25 0.34375 0  0.28125 0.34375 0  0.3125 0.34375 0  0.34375 0.34375 0  0.375 0.34375 0  0.40625 0.34375 0  0.4375 0.34375 0  0.46875 0.34375 0  0.5 0.34375 0  0.53125 0.34375 0  0.5625 0.34375 0  0.59375 0.34375 0  0.625 0.34375 0  0.65625 0.34375 0  0.6875 0.34375 0  0.71875 0.34375 0  0.75 0.34375 0  0.78125 0.34375 0  0.8125 0.34375 0  0.84375 0.34375 0  0.875 0.34375 0  0.90625 0.34375 0  0.9375 0.34375 0  0.96875 0.34375 0  1 0.34375 0  0 0.375 0  0.03125 0.375 0  0.0625 0.375 0  0.09375 0.375 0  0.125 0.375 0  0.15625 0.375 0  0.1875 0.375 0  0.21875 0.375 0  0.25 0.375 0  0.28125 0.375 0  0.3125 0.375 0  0.34375 0.375 0  0.375 0.375 0  0.40625 0.375 0  0.4375 0.375 0  0.46875 0.375 0  0.5 0.375 0  0.53125 0.375 0  0.5625 0.375 0  0.59375 0.375 0  0.625 0.375 0  0.65625 0.375 0  0.6875 0.375 0  0.71875 0.375 0  0.75 0.375 0  0.78125 0.375 0  0.8125 0.375 0  0.84375 0.375 0  0.875 0.375 0  0.90625 0.375 0  0.9375 0.375 0  0.96875 0.375 0  1 0.375 0  0 0.40625 0  0.03125 0.40625 0  0.0625 0.40625 0  0.09375 0.40625 0  0.125 0.40625 0  0.15625 0.40625 0  0.1875 0.40625 0  0.21875 0.40625 0  0.25 0.40625 0  0.28125 0.40625 0  0.3125 0.40625 0  0.34375 0.40625 0  0.375 0.40625 0  0.40625 0.40625 0  0.4375 0.40625 0  0.46875 0.40625 0  0.5 0.40625 0  0.53125 0.40625 0  0.5625 0.40625 0  0.59375 0.40625 0  0.625 0.40625 0  0.65625 0.40625 0  0.6875 0.40625 0  0.71875 0.40625 0  0.75 0.40625 0  0.78125 0.40625 0  0.8125 0.40625 0  0.84375 0.40625 0  0.875 0.40625 0  0.90625 0.40625 0  0.9375 0.40625 0  0.96875 0.40625 0  1 0.40625 0  0 0.4375 0  0.03125 0.4375 0  0.0625 0.4375 0  0.09375 0.4375 0  0.125 0.4375 0  0.15625 0.4375 0  0.1875 0.4375 0  0.21875 0.4375 0  0.25 0.4375 0  0.28125 0.4375 0  0.3125 0.4375 0  0.34375 0.4375 0  0.375 0.4375 0  0.40625 0.4375 0  0.4375 0.4375 0  0.46875 0.4375 0  0.5 0.4375 0  0.53125 0.4375 0  0.5625 0.4375 0  0.59375 0.4375 0  0.625 0.4375 0  0.65625 0.4375 0  0.6875 0.4375 0  0.71875 0.4375 0  0.75 0.4375 0  0.78125 0.4375 0  0.8125 0.4375 0  0.84375 0.4375 0  0.875 0.4375 0  0.90625 0.4375 0  0.9375 0.4375 0  0.96875 0.4375 0  1 0.4375 0  0 0.46875 0  0.03125 0.46875 0  0.0625 0.46875 0  0.09375 0.46875 0  0.125 0.46875 0  0.15625 0.46875 0  0.1875 0.46875 0  0.21875 0.46875 0  0.25 0.46875 0  0.28125 0.46875 0  0.3125 0.46875 0  0.34375 0.46875 0  0.375 0.46875 0  0.40625 0.46875 0  0.4375 0.46875 0  0.46875 0.46875 0  0.5 0.46875 0  0.53125 0.46875 0  0.5625 0.46875 0  0.59375 0.46875 0  0.625 0.46875 0  0.65625 0.46875 0  0.6875 0.46875 0  0.71875 0.46875 0  0.75 0.46875 0  0.78125 0.46875 0  0.8125 0.46875 0  0.84375 0.46875 0  0.875 0.46875 0  0.90625 0.46875 0  0.9375 0.46875 0  0.96875 0.46875 0  1 0.46875 0  0 0.5 0  0.03125 0.5 0  0.0625 0.5 0  0.09375 0.5 0  0.125 0.5 0  0.15625 0.5 0  0.1875 0.5 0  0.21875 0.5 0  0.25 0.5 0  0.28125 0.5 0  0.3125 0.5 0  0.34375 0.5 0  0.375 0.5 0  0.40625 0.5 0  0.4375 0.5 0  0.46875 0.5 0  0.5 0.5 0  0.53125 0.5 0  0.5625 0.5 0  0.59375 0.5 0  0.625 0.5 0  0.65625 0.5 0  0.6875 0.5 0  0.71875 0.5 0  0.75 0.5 0  0.78125 0.5 0  0.8125 0.5 0  0.84375 0.5 0  0.875 0.5 0  0.90625 0.5 0  0.9375 0.5 0  0.96875 0.5 0  1 0.5 0  0 0.53125 0  0.03125 0.53125 0  0.0625 0.53125 0  0.09375 0.53125 0  0.125 0.53125 0  0.15625 0.53125 0  0.1875 0.53125 0  0.21875 0.53125 0  0.25 0.53125 0  0.28125 0.53125 0  0.3125 0.53125 0  0.34375 0.53125 0  0.375 0.53125 0  0.40625 0.53125 0  0.4375 0.53125 0  0.46875 0.53125 0  0.5 0.53125 0  0.53125 0.53125 0  0.5625 0.53125 0  0.59375 0.53125 0  0.625 0.53125 0  0.65625 0.53125 0  0.6875 0.53125 0  0.71875 0.53125 0  0.75 0.53125 0  0.78125 0.531
[...]
<PointData  Scalars="phi"> 
<DataArray  type="Float64"  Name="phi"  format="ascii">0.0000000000000000e+00  0.0000000000000000e+00  0.0000000000000000e+00  0.0000000000000000e+00  0.0000000000000000e+00  0.0000000000000000e+00  0.0000000000000000e+00  0.0000000000000000e+00  0.0000000000000000e+00  0.0000000000000000e+00  0.0000000000000000e+00  0.0000000000000000e+00  0.0000000000000000e+00  0.0000000000000000e+00  0.0000000000000000e+00  0.0000000000000000e+00  0.0000000000000000e+00  0.0000000000000000e+00  0.0000000000000000e+00  0.0000000000000000e+00  0.0000000000000000e+00  0.0000000000000000e+00  0.0000000000000000e+00  0.0000000000000000e+00  0.0000000000000000e+00  0.0000000000000000e+00  0.0000000000000000e+00  0.0000000000000000e+00  0.0000000000000000e+00  0.0000000000000000e+00  0.0000000000000000e+00  0.0000000000000000e+00  0.0000000000000000e+00  0.0000000000000000e+00  -1.4575240016844401e-03  -2.8742951666756965e-03  -4.2189107840544682e-03  -5.4610801179008749e-03  -6.5733360356845360e-03  -7.5321719509349730e-03  -8.3188765221989674e-03  -8.9201339511100781e-03  -9.3284026006171389e-03  -9.5420721906896745e-03  -9.5654006903492881e-03  -9.4082373613488396e-03  -9.0855451748779494e-03  -8.6167427590191879e-03  -8.0248924917456829e-03  -7.3357669251757091e-03  -6.5768301272382101e-03  -5.7761735551005071e-03  -4.9614475987869739e-03  -4.1588298876558960e-03  -3.3920698357988912e-03  -2.6816457769103675e-03  -2.0440665264595654e-03  -1.4913434858279014e-03  -1.0306526950247647e-03  -6.6419881512299825e-04  -3.8928518187678811e-04  -1.9858615565379308e-04  -8.0610385666444055e-05  -2.0336804644742258e-05  -2.2372053283231704e-16  0.0000000000000000e+00  0.0000000000000000e+00  -2.8742951666756895e-03  -5.6715155291475611e-03  -8.3270330207720136e-03  -1.0779994407679998e-02  -1.2975622422060705e-02  -1.4867165094886644e-02  -1.6417459035645992e-02  -1.7600090160178831e-02  -1.8400134190000722e-02  -1.8814464111449394e-02  -1.8851622267591767e-02  -1.8531268201097822e-02  -1.7883227828195871e-02  -1.6946183714454686e-02  -1.5766059239241504e-02  -1.4394160602203221e-02  -1.2885149426230889e-02  -1.1294924765445802e-02  -9.6784963795703994e-03  -8.0879310602700455e-03  -6.5704505899997368e-03  -5.1667537030906322e-03  -3.9096254441476205e-03  -2.8228859310673792e-03  -1.9207171760211158e-03  -1.2073918254617505e-03  -6.7741204266065101e-04  -3.1605091824789451e-04  -1.0027344684585289e-04  -8.7635226120923967e-16  2.0336804643856383e-05  0.0000000000000000e+00  0.0000000000000000e+00  -4.2189107840544422e-03  -8.3270330207719807e-03  -1.2227201697563025e-02  -1.5828603737552967e-02  -1.9049808660874946e-02  -2.1821470015208039e-02  -2.4088559444306164e-02  -2.5812051082111123e-02  -2.6970002718677420e-02  -2.7558002737116477e-02  -2.7588974123516699e-02  -2.7092349713571398e-02  -2.6112655594418822e-02  -2.4707561250835057e-02  -2.2945474675805426e-02  -2.0902777414812730e-02  -1.8660807683437145e-02  -1.6302708752194528e-02  -1.3910264366730714e-02  -1.1560842882409801e-02  -9.3245670416605211e-03  -7.2618170947383910e-03  -5.4211616192595454e-03  -3.8377934512373235e-03  -2.5325282619214563e-03  -1.5114012789863912e-03  -7.6587432516144892e-04  -2.7364165867886523e-04  -1.8966357856861405e-15  1.0027344684327387e-04  8.0610385665139936e-05  0.0000000000000000e+00  0.0000000000000000e+00  -5.4610801179008090e-03  -1.0779994407679894e-02  -1.5828603737552877e-02  -2.0487450489024634e-02  -2.4649638458657065e-02  -2.8224294540159633e-02  -3.1139449326598415e-02  -3.3344218977548239e-02  -3.4810207539651757e-02  -3.5532082161580811e-02  -3.5527305910378497e-02  -3.4835044753387646e-02  -3.3514296207561627e-02  -3.1641316228332154e-02  -2.9306447060795729e-02  -2.6610471008661318e-02  -2.3660632529243452e-02  -2.0566483057218733e-02  -1.7435709030391013e-02  -1.4370103503068625e-02  -1.1461835492258543e-02  -8.7901590529974021e-03  -6.4186864950814540e-03  -4.3933278181809490e-03  -2.7409722241000644e-03  -1.4689584829947794e-03  -5.6535011533455132e-04  -3.1862274695111155e-15  2.7364165867394745e-04  3.1605091824454964e-04  1.9858615565210102e-04  0.0000000000000000e+00  0.0000000000000000e+00  -6.5733360356844076e-03  -1.2975622422060490e-02  -1.9049808660874704e-02  -2.4649638458656885e-02  -2.9644403687620460e-02  -3.3923162966431490e-02  -3.7398248918367877e-02  -4.0007924630599538e-02  -4.1718088666198021e-02  -4.2522967712154823e-02  -4.2444776048029667e-02  -4.1532360855834442e-02  -3.9858890976812902e-02  -3.7518682851099459e-02  -3.4623289793892127e-02  -3.1297008278828031e-02  -2.7671976483505716e-02  -2.3883055185984801e-02  -2.0062688621692359e-02  -1.6335942834511438e-02  -1.2815911393184998e-02  -9.5996633961490455e-03  -6.7648870369231406e-03  -4.3673544889209735e-03  -2.4393015593066206e-03  -9.8877970653854725e-04  -4.6190528792998404e-15  5.6535011532687614e-04  7.6587432515552267e-04  6.7741204265661854e-04  3.8928518187474753e-04  0.0000000000000000e+00  0.0000000000000000e+00  -7.5321719509347579e-03  -1.4867165094886257e-02  -2.1821470015207560e-02  -2.8224294540159164e-02  -3.3923162966431178e-02  -3.8788864811717665e-02  -4.2719560578382998e-02  -4.5643886913517617e-02  -4.7522944590677088e-02  -4.8351097547992064e-02  -4.8155557852117739e-02  -4.6994778340742380e-02  -4.4955720279189565e-02  -4.2150106081556935e-02  -3.8709805466524978e-02  -3.4781535935895239e-02  -3.0521083968173178e-02  -2.6087270852498304e-02  -2.1635895991059764e-02  -1.7313890440065823e-02  -1.3253904452518651e-02  -9.5695351860436012e-03  -6.3513752314624302e-03  -3.6640301919536652e-03  -1.5442154529627006e-03  -6.0524713092446839e-15  9.8877970652796760e-04  1.4689584829859828e-03  1.5114012789795950e-03  1.2073918254571240e-03  6.6419881512065615e-04  0.0000000000000000e+00  0.0000000000000000e+00  -8.3188765221986344e-03  -1.6417459035645378e-02  -2.4088559444305355e-02  -3.1139449326597540e-02  -3.7398248918367100e-02  -4.2719560578382512e-02  -4.6989134225597542e-02  -5.0127389600753795e-02  -5.2091664662519584e-02  -5.2877109087972385e-02  -5.2516194340803568e-02  -5.1076864992087939e-02  -4.8659407934770180e-02  -4.5392164908649821e-02  -4.1426257543196982e-02  -3.6929531299269618e-02  -3.2079953854418752e-02  -2.7058723533677088e-02  -2.2043353585595112e-02  -1.7200998064021360e-02  -1.2682274813298483e-02  -8.6158209735150964e-03  -5.1037873051256299e-03  -2.2184406070120785e-03  -7.3393079838371852e-15  1.5442154529493612e-03  2.4393015592949490e-03  2.7409722240903504e-03  2.5325282619139467e-03  1.9207171760160001e-03  1.0306526950221739e-03  0.0000000000000000e+00  0.0000000000000000e+00  -8.9201339511095976e-03  -1.7600090160177929e-02  -2.5812051082109898e-02  -3.3344218977546837e-02  -4.0007924630598143e-02  -4.5643886913516438e-02  -5.0127389600753081e-02  -5.3372183103466489e-02  -5.5332967372625566e-02  -5.6006366699161453e-02  -5.5430365066970765e-02  -5.3682229704567569e-02  -5.0875008227604664e-02  -4.7152739061766057e-02  -4.2684563627031810e-02  -3.7657970205489499e-02  -3.2271431939102938e-02  -2.6726723782252403e-02  -2.1221214623533380e-02  -1.5940430768973998e-02  -1.1051175558078075e-02  -6.6954675153996571e-03  -2.9855269940222270e-03  -8.3416791135001708e-15  2.2184406069964135e-03  3.6640301919394049e-03  4.3673544889084783e-03  4.3933278181705390e-03  3.8377934512292687e-03  2.8228859310618888e-03  1.4913434858251202e-03  0.0000000000000000e+00  0.0000000000000000e+00  -9.3284026006164780e-03  -1.8400134189999466e-02  -2.6970002718675688e-02  -3.4810207539649710e-02  -4.1718088666195856e-02  -4.7522944590675062e-02  -5.2091664662517953e-02  -5.5332967372624622e-02  -5.7200088708393285e-02  -5.7691823875201186e-02  -5.6851888635251174e-02  -5.4766630739900818e-02  -5.1561184896178489e-02  -4.7394223974232388e-02  -4.2451512456599005e-02  -3.6938513417685906e-02  -3.1072335878126963e-02  -2.5073333852696739e-02  -1.9156680875998977e-02  -1.3524243781233923e-02  -8.3570670365030394e-03  -3.8087545009925961e-03  -8.9424980489478260e-15  2.9855269940049266e-03  5.1037873051093443e-03  6.3513752314475766e-03  6.7648870369101041e-03  6.4186864950705781e-03  5.4211616192511216e-03  3.9096254441418760e-03  2.0440665264566536e-03  0.0000000000000000e+00  0.0000000000000000e+00  -9.5420721906888141e-03  -1.8814464111447739e-02  -2.7558002737114159e-02  -3.5532082161578014e-02  -4.2522967712151777e-02  -4.8351097547989025e-02  -5.2877109087969644e-02  -5.6006366699159323e-02  -5.7691823875199971e-02  -5.7935116560312645e-02  -5.6785851779739965e-02  -5.4339124637799455e-02  -5.0731364336910154e-02  -4.6134673530232692e-02  -4.0749882592056579e-02  -3.4798589075059790e-02  -2.8514490858662166e-02  -2.2134347818427866e-02  -1.5888920261888907e-02  -9.9942323766258924e-03  -4.6434955327698795e-03  -9.0571448156657941e-15  3.8087545009745575e-03  6.6954675153821433e-03  8.6158209734985610e-03  9.5695351860284848e-03  9.5996633961357505e-03  8.7901590529862947e-03  7.2618170947297764e-03  5.1667537030847532e-03  2.6816457769073859e-03  0.0000000000000000e+00  0.0000000000000000e+00  -9.5654006903482039e-03  -1.8851622267589671e-02  -2.7588974123513729e-02  -3.5527305910374854e-02  -4.2444776048025615e-02  -4.8155557852113534e-02  -5.2516194340799544e-02  -5.5430365066967253e-02  -5.6851888635248538e-02  -5.6785851779738501e-02  -5.5287827367786729e-02  -5.2461216658743197e-02  -4.8452822739984483e-02  -4.3446829509402971e-02  -3.7657421269203281e-02  -3.1320329604076852e-02  -2.4683634756301615e-02  -1.7998176628493755e-02  -1.1507944776067584e-02  -5.4408167574896554e-03  -8.6389942341423429e-15  4.6434955327521272e-03  8.3570670364852655e-03  1.1051175558060736e-02  1.2682274813282055e-02  1.3253904452503587e-02  1.2815911393171720e-02  1.1461835492247430e-02  9.3245670416518926e-03  6.5704505899938405e-03  3.3920698357958988e-03  0.0000000000000000e+00  0.0000000000000000e+00  -9.4082373613475143e-03  -1.8531268201095248e-02  -2.7092349713567727e-02  -3.4835044753383088e-02  -4.1532360855829259e-02  -4.6994778340736891e-02  -5.1076864992082485e-02  -5.3682229704562517e-02  -5.4766630739896557e-02  -5.4339124637796304e-02  -5.2461216658741490e-02  -4.9244049995712386e-02  -4.4843745919592032e-02  -3.9455077618918803e-02  -3.3303724033537291e-02  -2.6637404015447952e-02  -1.9716233600880373e-02  -1.2802678415967300e-02  -6.1514881451709170e-03  -7.6841121561649714e-15  5.4408167574732675e-03  9.9942323766089077e-03  1.3524243781216803e-02  1.5940430768957202e-02  1.7200998064005379e-02  1.7313890440051116e-02  1.6335942834498438e-02  1.4370103503057721e-02  1.1560842882401320e-02  8.0879310602642446e-03  4.1588298876529504e-03  0.0000000000000000e+00  0.0000000000000000e+00  -9.0855451748763708e-03  -1.7883227828192801e-02  -2.6112655594414409e-02  -3.3514296207556096e-02  -3.9858890976806546e-02  -4.4955720279182709e-02  -4.8659407934763199e-02  -5.0875008227597954e-02  -5.1561184896172438e-02  -5.0731364336905144e-02  -4.8452822739980854e-02  -4.4843745919590096e-02  -4.0068378157230577e-02  -3.4330449452350448e-02  -2.7865136350115130e-02  -2.0929867456775240e-02  -1.3794328705863453e-02  -6.7300537138027380e-03  -6.2326678991704259e-15  6.1514881451569395e-03  1.1507944776052459e-02  1.5888920261873052e-02  1.9156680875982855e-02  2.1221214623517455e-02  2.2043353585579892e-02  2.1635895991045696e-02  2.0062688621679876e-02  1.7435709030380511e-02  1.3910264366722531e-02  9.6784963795647980e-03  4.9614475987841272e-03  0.0000000000000000e+00  0.0000000000000000e+00  -8.6167427590173509e-03  -1.6946183714451103e-02  -2.4707561250829881e-02  -3.1641316228325639e-02  -3.7518682851091917e-02  -4.2150106081548684e-02  -4.5392164908641272e-02  -4.7152739061757612e-02  -4.7394223974224464e-02  -4.6134673530225712e-02  -4.3446829509397294e-02  -3.9455077618914772e-02  -3.4330449452348324e-02  -2.8283864574314570e-02  -2.1557874313962156e-02  -1.4417226162041965e-02  -7.1386126987509572e-03  -4.3721386748294439e-15  6.7300537137920851e-03  1.2802678415955022e-02  1.7998176628480210e-02  2.2134347818413461e-02  2.5073333852681928e-02  2.6726723782237650e-02  2.7058723533662885e-02  2.6087270852485106e-02  2.3883055185973053e-02  2.0566483057208818e-02  1.6302708752186784e-02  1.1294924765440490e-02  5.7761735550978053e-03  0.0000000000000000e+00  0.0000000000000000e+00  -8.0248924917435960e-03  -1.5766059239237417e-02  -2.2945474675799514e-02  -2.9306447060788235e-02  -3.4623289793883391e-02  -3.8709805466515333e-02  -4.1426257543186851e-02  -4.2684563627021624e-02  -4.2451512456589201e-02  -4.0749882592047593e-02  -3.7657421269195510e-02  -3.3303724033531074e-02  -2.7865136350110779e-02  -2.1557874313959904e-02  -1.4629629933982716e-02  -7.3499845971713509e-03  -2.2169074478014616e-15  7.1386126987443357e-03  1.3794328705854838e-02  1.9716233600870027e-02  2.4683634756289881e-02  2.8514490858649447e-02  3.1072335878113706e-02  3.2271431939089587e-02  3.2079953854405791e-02  3.0521083968161056e-02  2.7671976483494870e-02  2.3660632529234268e-02  1.8660807683429953e-02  1.2885149426225945e-02  6.5768301272356930e-03  0.0000000000000000e+00  0.0000000000000000e+00  -7.3357669251733863e-03  -1.4394160602198666e-02  -2.0902777414806121e-02  -2.6610471008652908e-02  -3.1297008278818150e-02  -3.4781535935884254e-02  -3.6929531299257967e-02  -3.7657970205477620e-02  -3.6938513417674256e-02  -3.4798589075048819e-02  -3.1320329604066978e-02  -2.6637404015439549e-02  -2.0929867456768645e-02  -1.4417226162037416e-02  -7.3499845971690351e-03  8.8588786936185306e-17  7.3499845971692112e-03  1.4417226162037592e-02  2.0929867456768808e-02  2.6637404015439695e-02  3.1320329604067110e-02  3.4798589075048944e-02  3.6938513417674373e-02  3.7657970205477745e-02  3.6929531299258078e-02  3.4781535935884358e-02  3.1297008278818234e-02  2.6610471008652981e-02  2.0902777414806180e-02  1.4394160602198707e-02  7.3357669251734071e-03  0.0000000000000000e+00  0.0000000000000000e+00  -6.5768301272356722e-03  -1.2885149426225904e-02  -1.8660807683429897e-02  -2.3660632529234199e-02  -2.7671976483494787e-02  -3.0521083968160959e-02  -3.2079953854405679e-02  -3.2271431939089469e-02  -3.1072335878113578e-02  -2.8514490858649315e-02  -2.4683634756289742e-02  -1.9716233600869874e-02  -1.3794328705854664e-02  -7.1386126987441588e-03  2.3948808799050931e-15  7.3499845971715261e-03  1.4629629933982886e-02  2.1557874313960064e-02  2.7865136350110925e-02  3.3303724033531185e-02  3.7657421269195628e-02  4.0749882592047711e-02  4.2451512456589333e-02  4.2684563627021756e-02  4.1426257543186969e-02  3.8709805466515444e-02  3.4623289793883488e-02  2.9306447060788315e-02  2.2945474675799576e-02  1.5766059239237462e-02  8.0248924917436168e-03  0.0000000000000000e+00  0.0000000000000000e+00  -5.7761735550977845e-03  -1.1294924765440452e-02  -1.6302708752186729e-02  -2.0566483057208748e-02  -2.3883055185972973e-02  -2.6087270852485016e-02  -2.7058723533662780e-02  -2.6726723782237543e-02  -2.5073333852681814e-02  -2.2134347818413329e-02  -1.7998176628480064e-02  -1.2802678415954860e-02  -6.7300537137919107e-03  4.5496035042296392e-15  7.1386126987511341e-03  1.4417226162042138e-02  2.1557874313962319e-02  2.8283864574314727e-02  3.4330449452348463e-02  3.9455077618914883e-02  4.3446829509397419e-02  4.6134673530225850e-02  4.7394223974224603e-02  4.7152739061757744e-02  4.5392164908641397e-02  4.2150106081548788e-02  3.7518682851092000e-02  3.1641316228325715e-02  2.4707561250829947e-02  1.6946183714451144e-02  8.6167427590173734e-03  0.0000000000000000e+00  0.0000000000000000e+00  -4.9614475987841081e-03  -9.6784963795647598e-03  -1.3910264366722481e-02  -1.7435709030380445e-02  -2.0062688621679800e-02  -2.1635895991045602e-02  -2.2043353585579791e-02  -2.1221214623517358e-02  -1.9156680875982740e-02  -1.5888920261872923e-02  -1.1507944776052312e-02  -6.1514881451567773e-03  6.4050418097803276e-15  6.7300537138029167e-03  1.3794328705863633e-02  2.0929867456775414e-02  2.7865136350115283e-02  3.4330449452350593e-02  4.0068378157230709e-02  4.4843745919590214e-02  4.8452822739980986e-02  5.0731364336905282e-02  5.1561184896172590e-02  5.0875008227598092e-02  4.8659407934763324e-02  4.4955720279182820e-02  3.9858890976806644e-02  3.3514296207556180e-02  2.6112655594414471e-02  1.7883227828192842e-02  9.0855451748763898e-03  0.0000000000000000e+00  0.0000000000000000e+00  -4.1588298876529314e-03  -8.0879310602642064e-03  -1.1560842882401268e-02  -1.4370103503057653e-02  -1.6335942834498358e-02  -1.7313890440051022e-02  -1.7200998064005279e-02  -1.5940430768957094e-02  -1.3524243781216680e-02  -9.9942323766087741e-03  -5.4408167574731218e-03  7.8449929649592403e-15  6.1514881451710879e-03  1.2802678415967474e-02  1.9716233600880546e-02  2.6637404015448108e-02  3.3303724033537430e-02  3.9455077618918935e-02  4.4843745919592164e-02  4.9244049995712524e-02  5.2461216658741622e-02  5.4339124637796443e-02  5.4766630739896703e-02  5.3682229704562670e-02  5.1076864992082617e-02  4.6994778340737002e-02  4.1532360855829349e-02  3.4835044753383157e-02  2.7092349713567783e-02  1.8531268201095286e-02  9.4082373613475333e-03  0.0000000000000000e+00  0.0000000000000000e+00  -3.3920698357958806e-03  -6.5704505899938058e-03  -9.3245670416518406e-03  -1.1461835492247364e-02  -1.2815911393171640e-02  -1.3253904452503495e-02  -1.2682274813281953e-02  -1.1051175558060622e-02  -8.3570670364851406e-03  -4.6434955327519902e-03  8.7872136180601086e-15  5.4408167574898133e-03  1.1507944776067749e-02  1.7998176628493921e-02  2.4683634756301774e-02  3.1320329604077005e-02  3.7657421269203434e-02  4.3446829509403109e-02  4.8452822739984636e-02  5.2461216658743343e-02  5.5287827367786875e-02  5.6785851779738647e-02  5.6851888635248676e-02  5.5430365066967413e-02  5.2516194340799668e-02  4.8155557852113638e-02  4.2444776048025698e-02  3.5527305910374916e-02  2.7588974123513781e-02  1.8851622267589706e-02  9.5654006903482230e-03  0.0000000000000000e+00  0.0000000000000000e+00  -2.6816457769073686e-03  -5.1667537030847185e-03  -7.2618170947297278e-03  -8.7901590529862305e-03  -9.5996633961356742e-03  -9.5695351860283946e-03  -8.6158209734984604e-03  -6.6954675153820288e-03  -3.8087545009744313e-03  9.1929832286881393e-15  4.6434955327700252e-03  9.9942323766260451e-03  1.5888920261889067e-02  2.2134347818428025e-02  2.8514490858662325e-02  3.4798589075059942e-02  4.0749882592056731e-02  4.6134673530232845e-02  5.0731364336910320e-02  5.4339124637799614e-02  5.6785851779740118e-02  5.7935116560312798e-02  5.7691823875200124e-02  5.6006366699159482e-02  5.2877109087969776e-02  4.8351097547989129e-02  4.2522967712151846e-02  3.5532082161578077e-02  2.7558002737114201e-02  1.8814464111447771e-02  9.5420721906888314e-03  0.0000000000000000e+00  0.0000000000000000e+00  -2.0440665264566367e-03  -3.9096254441418430e-03  -5.4211616192510748e-03  -6.4186864950705174e-03  -6.7648870369100304e-03  -6.3513752314474899e-03  -5.1037873051092463e-03  -2.9855269940048165e-03  9.0638798827453149e-15  3.8087545009927275e-03  8.3570670365031817e-03  1.3524243781234076e-02  1.9156680875999130e-02  2.5073333852696892e-02  3.1072335878127112e-02  3.6938513417686052e-02  4.2451512456599158e-02  4.7394223974232541e-02  5.1561184896178669e-02  5.4766630739900998e-02  5.6851888635251327e-02  5.7691823875201331e-02  5.7200088708393410e-02  5.5332967372624747e-02  5.2091664662518064e-02  4.7522944590675145e-02  4.1718088666195918e-02  3.4810207539649751e-02  2.6970002718675716e-02  1.8400134189999494e-02  9.3284026006164953e-03  0.0000000000000000e+00  0.0000000000000000e+00  -1.4913434858251048e-03  -2.8228859310618589e-03  -3.8377934512292241e-03  -4.3933278181704817e-03  -4.3673544889084089e-03  -3.6640301919393238e-03  -2.2184406069963207e-03  8.4457953243326270e-15  2.9855269940223415e-03  6.6954675153997802e-03  1.1051175558078205e-02  1.5940430768974136e-02  2.1221214623533526e-02  2.6726723782252541e-02  3.2271431939103076e-02  3.7657970205489645e-02  4.2684563627031963e-02  4.7152739061766202