<?xml version="1.0"?>
<VTKFile type="UnstructuredGrid"  version="0.1"  >
<UnstructuredGrid>
<Piece  NumberOfPoints="1089" NumberOfCells="2048">
<Points>
<DataArray  type="Float64"  NumberOfComponents="3"  format="ascii">0 0 0  0.03125 0 0  0.0625 0 0  0.09375 0 0  0.125 0 0  0.15625 0 0  0.1875 0 0  0.21875 0 0  0.25 0 0  0.28125 0 0  0.3125 0 0  0.34375 0 0  0.375 0 0  0.40625 0 0  0.4375 0 0  0.46875 0 0  0.5 0 0  0.53125 0 0  0.5625 0 0  0.59375 0 0  0.625 0 0  0.65625 0 0  0.6875 0 0  0.71875 0 0  0.75 0 0  0.78125 0 0  0.8125 0 0  0.84375 0 0  0.875 0 0  0.90625 0 0  0.9375 0 0  0.96875 0 0  1 0 0  0 0.03125 0  0.03125 0.03125 0  0.0625 0.03125 0  0.09375 0.03125 0  0.125 0.03125 0  0.15625 0.03125 0  0.1875 0.03125 0  0.21875 0.03125 0  0.25 0.03125 0  0.28125 0.03125 0  0.3125 0.03125 0  0.34375 0.03125 0  0.375 0.03125 0  0.40625 0.03125 0  0.4375 0.03125 0  0.46875 0.03125 0  0.5 0.03125 0  0.53125 0.03125 0  0.5625 0.03125 0  0.59375 0.03125 0  0.625 0.03125 0  0.65625 0.03125 0  0.6875 0.03125 0  0.71875 0.03125 0  0.75 0.03125 0  0.78125 0.03125 0  0.8125 0.03125 0  0.84375 0.03125 0  0.875 0.03125 0  0.90625 0.03125 0  0.9375 0.03125 0  0.96875 0.03125 0  1 0.03125 0  0 0.0625 0  0.03125 0.0625 0  0.0625 0.0625 0  0.09375 0.0625 0  0.125 0.0625 0  0.15625 0.0625 0  0.1875 0.0625 0  0.21875 0.0625 0  0.25 0.0625 0  0.28125 0.0625 0  0.3125 0.0625 0  0.34375 0.0625 0  0.375 0.0625 0  0.40625 0.0625 0  0.4375 0.0625 0  0.46875 0.0625 0  0.5 0.0625 0  0.53125 0.0625 0  0.5625 0.0625 0  0.59375 0.0625 0  0.625 0.0625 0  0.65625 0.0625 0  0.6875 0.0625 0  0.71875 0.0625 0  0.75 0.0625 0  0.78125 0.0625 0  0.8125 0.0625 0  0.84375 0.0625 0  0.875 0.0625 0  0.90625 0.0625 0  0.9375 0.0625 0  0.96875 0.0625 0  1 0.0625 0  0 0.09375 0  0.03125 0.09375 0  0.0625 0.09375 0  0.09375 0.09375 0  0.125 0.09375 0  0.15625 0.09375 0  0.1875 0.09375 0  0.21875 0.09375 0  0.25 0.09375 0  0.28125 0.09375 0  0.3125 0.09375 0  0.34375 0.09375 0  0.375 0.09375 0  0.40625 0.09375 0  0.4375 0.09375 0  0.46875 0.09375 0  0.5 0.09375 0  0.53125 0.09375 0  0.5625 0.09375 0  0.59375 0.09375 0  0.625 0.09375 0  0.65625 0.09375 0  0.6875 0.09375 0  0.71875 0.09375 0  0.75 0.09375 0  0.78125 0.09375 0  0.8125 0.09375 0  0.84375 0.09375 0  0.875 0.09375 0  0.90625 0.09375 0  0.9375 0.09375 0  0.96875 0.09375 0  1 0.09375 0  0 0.125 0  0.03125 0.125 0  0.0625 0.125 0  0.09375 0.125 0  0.125 0.125 0  0.15625 0.125 0  0.1875 0.125 0  0.21875 0.125 0  0.25 0.125 0  0.28125 0.125 0  0.3125 0.125 0  0.34375 0.125 0  0.375 0.125 0  0.40625 0.125 0  0.4375 0.125 0  0.46875 0.125 0  0.5 0.125 0  0.53125 0.125 0  0.5625 0.125 0  0.59375 0.125 0  0.625 0.125 0  0.65625 0.125 0  0.6875 0.125 0  0.71875 0.125 0  0.75 0.125 0  0.78125 0.125 0  0.8125 0.125 0  0.84375 0.125 0  0.875 0.125 0  0.90625 0.125 0  0.9375 0.125 0  0.96875 0.125 0  1 0.125 0  0 0.15625 0  0.03125 0.15625 0  0.0625 0.15625 0  0.09375 0.15625 0  0.125 0.15625 0  0.15625 0.15625 0  0.1875 0.15625 0  0.21875 0.15625 0  0.25 0.15625 0  0.28125 0.15625 0  0.3125 0.15625 0  0.34375 0.15625 0  0.375 0.15625 0  0.40625 0.15625 0  0.4375 0.15625 0  0.46875 0.15625 0  0.5 0.15625 0  0.53125 0.15625 0  0.5625 0.15625 0  0.59375 0.15625 0  0.625 0.15625 0  0.65625 0.15625 0  0.6875 0.15625 0  0.71875 0.15625 0  0.75 0.15625 0  0.78125 0.15625 0  0.8125 0.15625 0  0.84375 0.15625 0  0.875 0.15625 0  0.90625 0.15625 0  0.9375 0.15625 0  0.96875 0.15625 0  1 0.15625 0  0 0.1875 0  0.03125 0.1875 0  0.0625 0.1875 0  0.09375 0.1875 0  0.125 0.1875 0  0.15625 0.1875 0  0.1875 0.1875 0  0.21875 0.1875 0  0.25 0.1875 0  0.28125 0.1875 0  0.3125 0.1875 0  0.34375 0.1875 0  0.375 0.1875 0  0.40625 0.1875 0  0.4375 0.1875 0  0.46875 0.1875 0  0.5 0.1875 0  0.53125 0.1875 0  0.5625 0.1875 0  0.59375 0.1875 0  0.625 0.1875 0  0.65625 0.1875 0  0.6875 0.1875 0  0.71875 0.1875 0  0.75 0.1875 0  0.78125 0.1875 0  0.8125 0.1875 0  0.84375 0.1875 0  0.875 0.1875 0  0.90625 0.1875 0  0.9375 0.1875 0  0.96875 0.1875 0  1 0.1875 0  0 0.21875 0  0.03125 0.21875 0  0.0625 0.21875 0  0.09375 0.21875 0  0.125 0.21875 0  0.15625 0.21875 0  0.1875 0.21875 0  0.21875 0.21875 0  0.25 0.21875 0  0.28125 0.21875 0  0.3125 0.21875 0  0.34375 0.21875 0  0.375 0.21875 0  0.40625 0.21875 0  0.4375 0.21875 0  0.46875 0.21875 0  0.5 0.21875 0  0.53125 0.21875 0  0.5625 0.21875 0  0.59375 0.21875 0  0.625 0.21875 0  0.65625 0.21875 0  0.6875 0.21875 0  0.71875 0.21875 0  0.75 0.21875 0  0.78125 0.21875 0  0.8125 0.21875 0  0.84375 0.21875 0  0.875 0.21875 0  0.90625 0.21875 0  0.9375 0.21875 0  0.96875 0.21875 0  1 0.21875 0  0 0.25 0  0.03125 0.25 0  0.0625 0.25 0  0.09375 0.25 0  0.125 0.25 0  0.15625 0.25 0  0.1875 0.25 0  0.21875 0.25 0  0.25 0.25 0  0.28125 0.25 0  0.3125 0.25 0  0.34375 0.25 0  0.375 0.25 0  0.40625 0.25 0  0.4375 0.25 0  0.46875 0.25 0  0.5 0.25 0  0.53125 0.25 0  0.5625 0.25 0  0.59375 0.25 0  0.625 0.25 0  0.65625 0.25 0  0.6875 0.25 0  0.71875 0.25 0  0.75 0.25 0  0.78125 0.25 0  0.8125 0.25 0  0.84375 0.25 0  0.875 0.25 0  0.90625 0.25 0  0.9375 0.25 0  0.96875 0.25 0  1 0.25 0  0 0.28125 0  0.03125 0.28125 0  0.0625 0.28125 0  0.09375 0.28125 0  0.125 0.28125 0  0.15625 0.28125 0  0.1875 0.28125 0  0.21875 0.28125 0  0.25 0.28125 0  0.28125 0.28125 0  0.3125 0.28125 0  0.34375 0.28125 0  0.375 0.28125 0  0.40625 0.28125 0  0.4375 0.28125 0  0.46875 0.28125 0  0.5 0.28125 0  0.53125 0.28125 0  0.5625 0.28125 0  0.59375 0.28125 0  0.625 0.28125 0  0.65625 0.28125 0  0.6875 0.28125 0  0.71875 0.28125 0  0.75 0.28125 0  0.78125 0.28125 0  0.8125 0.28125 0  0.84375 0.28125 0  0.875 0.28125 0  0.90625 0.28125 0  0.9375 0.28125 0  0.96875 0.28125 0  1 0.28125 0  0 0.3125 0  0.03125 0.3125 0  0.0625 0.3125 0  0.09375 0.3125 0  0.125 0.3125 0  0.15625 0.3125 0  0.1875 0.3125 0  0.21875 0.3125 0  0.25 0.3125 0  0.28125 0.3125 0  0.3125 0.3125 0  0.34375 0.3125 0  0.375 0.3125 0  0.40625 0.3125 0  0.4375 0.3125 0  0.46875 0.3125 0  0.5 0.3125 0  0.53125 0.3125 0  0.5625 0.3125 0  0.59375 0.3125 0  0.625 0.3125 0  0.65625 0.3125 0  0.6875 0.3125 0  0.71875 0.3125 0  0.75 0.3125 0  0.78125 0.3125 0  0.8125 0.3125 0  0.84375 0.3125 0  0.875 0.3125 0  0.90625 0.3125 0  0.9375 0.3125 0  0.96875 0.3125 0  1 0.3125 0  0 0.34375 0  0.03125 0.34375 0  0.0625 0.34375 0  0.09375 0.34375 0  0.125 0.34375 0  0.15625 0.34375 0  0.1875 0.34375 0  0.21875 0.34375 0  0.25 0.34375 0  0.28125 0.34375 0  0.3125 0.34375 0  0.34375 0.34375 0  0.375 0.34375 0  0.40625 0.34375 0  0.4375 0.34375 0  0.46875 0.34375 0  0.5 0.34375 0  0.53125 0.34375 0  0.5625 0.34375 0  0.59375 0.34375 0  0.625 0.34375 0  0.65625 0.34375 0  0.6875 0.34375 0  0.71875 0.34375 0  0.75 0.34375 0  0.78125 0.34375 0  0.8125 0.34375 0  0.84375 0.34375 0  0.875 0.34375 0  0.90625 0.34375 0  0.9375 0.34375 0  0.96875 0.34375 0  1 0.34375 0  0 0.375 0  0.03125 0.375 0  0.0625 0.375 0  0.09375 0.375 0  0.125 0.375 0  0.15625 0.375 0  0.1875 0.375 0  0.21875 0.375 0  0.25 0.375 0  0.28125 0.375 0  0.3125 0.375 0  0.34375 0.375 0  0.375 0.375 0  0.40625 0.375 0  0.4375 0.375 0  0.46875 0.375 0  0.5 0.375 0  0.53125 0.375 0  0.5625 0.375 0  0.59375 0.375 0  0.625 0.375 0  0.65625 0.375 0  0.6875 0.375 0  0.71875 0.375 0  0.75 0.375 0  0.78125 0.375 0  0.8125 0.375 0  0.84375 0.375 0  0.875 0.375 0  0.90625 0.375 0  0.9375 0.375 0  0.96875 0.375 0  1 0.375 0  0 0.40625 0  0.03125 0.40625 0  0.0625 0.40625 0  0.09375 0.40625 0  0.125 0.40625 0  0.15625 0.40625 0  0.1875 0.40625 0  0.21875 0.40625 0  0.25 0.40625 0  0.28125 0.40625 0  0.3125 0.40625 0  0.34375 0.40625 0  0.375 0.40625 0  0.40625 0.40625 0  0.4375 0.40625 0  0.46875 0.40625 0  0.5 0.40625 0  0.53125 0.40625 0  0.5625 0.40625 0  0.59375 0.40625 0  0.625 0.40625 0  0.65625 0.40625 0  0.6875 0.40625 0  0.71875 0.40625 0  0.75 0.40625 0  0.78125 0.40625 0  0.8125 0.40625 0  0.84375 0.40625 0  0.875 0.40625 0  0.90625 0.40625 0  0.9375 0.40625 0  0.96875 0.40625 0  1 0.40625 0  0 0.4375 0  0.03125 0.4375 0  0.0625 0.4375 0  0.09375 0.4375 0  0.125 0.4375 0  0.15625 0.4375 0  0.1875 0.4375 0  0.21875 0.4375 0  0.25 0.4375 0  0.28125 0.4375 0  0.3125 0.4375 0  0.34375 0.4375 0  0.375 0.4375 0  0.40625 0.4375 0  0.4375 0.4375 0  0.46875 0.4375 0  0.5 0.4375 0  0.53125 0.4375 0  0.5625 0.4375 0  0.59375 0.4375 0  0.625 0.4375 0  0.65625 0.4375 0  0.6875 0.4375 0  0.71875 0.4375 0  0.75 0.4375 0  0.78125 0.4375 0  0.8125 0.4375 0  0.84375 0.4375 0  0.875 0.4375 0  0.90625 0.4375 0  0.9375 0.4375 0  0.96875 0.4375 0  1 0.4375 0  0 0.46875 0  0.03125 0.46875 0  0.0625 0.46875 0  0.09375 0.46875 0  0.125 0.46875 0  0.15625 0.46875 0  0.1875 0.46875 0  0.21875 0.46875 0  0.25 0.46875 0  0.28125 0.46875 0  0.3125 0.46875 0  0.34375 0.46875 0  0.375 0.46875 0  0.40625 0.46875 0  0.4375 0.46875 0  0.46875 0.46875 0  0.5 0.46875 0  0.53125 0.46875 0  0.5625 0.46875 0  0.59375 0.46875 0  0.625 0.46875 0  0.65625 0.46875 0  0.6875 0.46875 0  0.71875 0.46875 0  0.75 0.46875 0  0.78125 0.46875 0  0.8125 0.46875 0  0.84375 0.46875 0  0.875 0.46875 0  0.90625 0.46875 0  0.9375 0.46875 0  0.96875 0.46875 0  1 0.46875 0  0 0.5 0  0.03125 0.5 0  0.0625 0.5 0  0.09375 0.5 0  0.125 0.5 0  0.15625 0.5 0  0.1875 0.5 0  0.21875 0.5 0  0.25 0.5 0  0.28125 0.5 0  0.3125 0.5 0  0.34375 0.5 0  0.375 0.5 0  0.40625 0.5 0  0.4375 0.5 0  0.46875 0.5 0  0.5 0.5 0  0.53125 0.5 0  0.5625 0.5 0  0.59375 0.5 0  0.625 0.5 0  0.65625 0.5 0  0.6875 0.5 0  0.71875 0.5 0  0.75 0.5 0  0.78125 0.5 0  0.8125 0.5 0  0.84375 0.5 0  0.875 0.5 0  0.90625 0.5 0  0.9375 0.5 0  0.96875 0.5 0  1 0.5 0  0 0.53125 0  0.03125 0.53125 0  0.0625 0.53125 0  0.09375 0.53125 0  0.125 0.53125 0  0.15625 0.53125 0  0.1875 0.53125 0  0.21875 0.53125 0  0.25 0.53125 0  0.28125 0.53125 0  0.3125 0.53125 0  0.34375 0.53125 0  0.375 0.53125 0  0.40625 0.53125 0  0.4375 0.53125 0  0.46875 0.53125 0  0.5 0.53125 0  0.53125 0.53125 0  0.5625 0.53125 0  0.59375 0.53125 0  0.625 0.53125 0  0.65625 0.53125 0  0.6875 0.53125 0  0.71875 0.53125 0  0.75 0.53125 0  0.78125 0.531
[...]
<PointData  Scalars="phi"> 
<DataArray  type="Float64"  Name="phi"  format="ascii">0.0000000000000000e+00  0.0000000000000000e+00  0.0000000000000000e+00  0.0000000000000000e+00  0.0000000000000000e+00  0.0000000000000000e+00  0.0000000000000000e+00  0.0000000000000000e+00  0.0000000000000000e+00  0.0000000000000000e+00  0.0000000000000000e+00  0.0000000000000000e+00  0.0000000000000000e+00  0.0000000000000000e+00  0.0000000000000000e+00  0.0000000000000000e+00  0.0000000000000000e+00  0.0000000000000000e+00  0.0000000000000000e+00  0.0000000000000000e+00  0.0000000000000000e+00  0.0000000000000000e+00  0.0000000000000000e+00  0.0000000000000000e+00  0.0000000000000000e+00  0.0000000000000000e+00  0.0000000000000000e+00  0.0000000000000000e+00  0.0000000000000000e+00  0.0000000000000000e+00  0.0000000000000000e+00  0.0000000000000000e+00  0.0000000000000000e+00  0.0000000000000000e+00  -3.8544330681860925e-05  -7.6011460189088050e-05  -1.1157067668616982e-04  -1.4442082009237712e-04  -1.7383544300692005e-04  -1.9919285603642439e-04  -2.1999819294033551e-04  -2.3589928191096197e-04  -2.4669665656106964e-04  -2.5234771227476390e-04  -2.5296503699348300e-04  -2.4880908689474228e-04  -2.4027555647073410e-04  -2.2787797600770949e-04  -2.1222624025975121e-04  -1.9400191945616020e-04  -1.7393132016670716e-04  -1.5275734364078505e-04  -1.3121122954879363e-04  -1.0998527184952962e-04  -8.9707550759689794e-05  -7.0919642148554183e-05  -5.4058146341244532e-05  -3.9440726961471660e-05  -2.7257173044421647e-05  -1.7565801274647624e-05  -1.0295307869715326e-05  -5.2519702615257172e-06  -2.1318975202076601e-06  -5.3784852286527274e-07  -5.9094706111143331e-18  0.0000000000000000e+00  0.0000000000000000e+00  -7.6011460189087874e-05  -1.4998548616440324e-04  -2.2021253613407644e-04  -2.8508315969164814e-04  -3.4314863488642917e-04  -3.9317249973209279e-04  -4.3417188392255713e-04  -4.6544819983008258e-04  -4.8660672291649581e-04  -4.9756472150876054e-04  -4.9854807374081263e-04  -4.9007666532223967e-04  -4.7293924439971462e-04  -4.4815878514063479e-04  -4.1694975593691084e-04  -3.8066898346373766e-04  -3.4076203660129517e-04  -2.9870721434773552e-04  -2.5595930259849861e-04  -2.1389526267309608e-04  -1.7376392971856953e-04  -1.3664163487568174e-04  -1.0339542775607578e-04  -7.4655274621972050e-05  -5.0796254502176718e-05  -3.1931384278290446e-05  -1.7915290214441190e-05  -8.3585245305709455e-06  -2.6519197025499883e-06  -2.3146699137131271e-17  5.3784852284187367e-07  0.0000000000000000e+00  0.0000000000000000e+00  -1.1157067668616910e-04  -2.2021253613407557e-04  -3.2335543409228794e-04  -4.1859760734998150e-04  -5.0378545527187844e-04  -5.7708497068435370e-04  -6.3704081429817095e-04  -6.8262085544357263e-04  -7.1324476195408048e-04  -7.2879581863356639e-04  -7.2961574377835604e-04  -7.1648287799042543e-04  -6.9057472139556525e-04  -6.5341636854858345e-04  -6.0681690950907606e-04  -5.5279630855310281e-04  -4.9350562030844533e-04  -4.3114364256932125e-04  -3.6787322603023056e-04  -3.0574045883585167e-04  -2.4659981821919505e-04  -1.9204813747441537e-04  -1.4336988358905095e-04  -1.0149579280150113e-04  -6.6976385646774013e-05  -3.9971300293334321e-05  -2.0254766099286835e-05  -7.2369128244949231e-06  -5.0087936659271600e-17  2.6519197024818758e-06  2.1318975201732159e-06  0.0000000000000000e+00  0.0000000000000000e+00  -1.4442082009237539e-04  -2.8508315969164543e-04  -4.1859760734997916e-04  -5.4180488459554406e-04  -6.5187792976965984e-04  -7.4641344084849489e-04  -8.2350805144882386e-04  -8.8181602936651085e-04  -9.2058636050616478e-04  -9.3967796020548791e-04  -9.3955260723676800e-04  -9.2124603830123720e-04  -8.8631845905332940e-04  -8.3678649652647072e-04  -7.7503930944158557e-04  -7.0374216086968111e-04  -6.2573121929810206e-04  -5.4390367137247659e-04  -4.6110739014342255e-04  -3.8003440034387119e-04  -3.0312221720262987e-04  -2.3246681402226536e-04  -1.6975050873135948e-04  -1.1618746894984330e-04  -7.2488841742883160e-05  -3.8848745136910803e-05  -1.4951543530554142e-05  -8.4126843102849846e-17  7.2369128243650662e-06  8.3585245304826135e-06  5.2519702614810320e-06  0.0000000000000000e+00  0.0000000000000000e+00  -1.7383544300691658e-04  -3.4314863488642337e-04  -5.0378545527187204e-04  -6.5187792976965507e-04  -7.8396927882314060e-04  -8.9712548077255580e-04  -9.8902802282227953e-04  -1.0580441521700536e-03  -1.1032719658320585e-03  -1.1245587281596818e-03  -1.1224918654500777e-03  -1.0983631405224394e-03  -1.0541075305535823e-03  -9.9221928698247806e-04  -9.1564851362747641e-04  -8.2768232689303862e-04  -7.3181523277668662e-04  -6.3161374769983320e-04  -5.3058048909146644e-04  -4.3202295966785891e-04  -3.3893204671944078e-04  -2.5387486241368155e-04  -1.7890597855223548e-04  -1.1550038161384209e-04  -6.4510619470400707e-05  -2.6149662944914049e-05  -1.2191477047496016e-16  1.4951543530351528e-05  2.0254766099130371e-05  1.7915290214334718e-05  1.0295307869661445e-05  0.0000000000000000e+00  0.0000000000000000e+00  -1.9919285603641867e-04  -3.9317249973208255e-04  -5.7708497068434102e-04  -7.4641344084848274e-04  -8.9712548077254734e-04  -1.0258039343369171e-03  -1.1297554992906363e-03  -1.2070928458666982e-03  -1.2567871908248200e-03  -1.2786894291025742e-03  -1.2735191584465877e-03  -1.2428221722151579e-03  -1.1888982010053121e-03  -1.1147018133920623e-03  -1.0237203994753388e-03  -9.1983402090892456e-04  -8.0716258558340885e-04  -6.8990626882606460e-04  -5.7218533843920332e-04  -4.5788553937737566e-04  -3.5051495568387959e-04  -2.5307780187105614e-04  -1.6796992136837259e-04  -9.6899912138951943e-05  -4.0838792253641303e-05  -1.5968975758034379e-16  2.6149662944634857e-05  3.8848745136678628e-05  3.9971300293154920e-05  3.1931384278168303e-05  1.7565801274585791e-05  0.0000000000000000e+00  0.0000000000000000e+00  -2.1999819294032664e-04  -4.3417188392254075e-04  -6.3704081429814970e-04  -8.2350805144880098e-04  -9.8902802282225914e-04  -1.1297554992906233e-03  -1.2426689776692179e-03  -1.3256638307671783e-03  -1.3776117689533241e-03  -1.3983844704052325e-03  -1.3888406253707635e-03  -1.3507770472139208e-03  -1.2868458770251320e-03  -1.2004411984838834e-03  -1.0955595377442201e-03  -9.7663970621430021e-04  -8.4838821537027158e-04  -7.1559702318845636e-04  -5.8296064148519308e-04  -4.5489963242883373e-04  -3.3539725109177170e-04  -2.2785545986130705e-04  -1.3497577050447762e-04  -5.8669390524378979e-05  -1.9353556683507086e-16  4.0838792253289452e-05  6.4510619470092780e-05  7.2488841742626841e-05  6.6976385646575821e-05  5.0796254502041708e-05  2.7257173044353268e-05  0.0000000000000000e+00  0.0000000000000000e+00  -2.3589928191094915e-04  -4.6544819983005851e-04  -6.8262085544354011e-04  -8.8181602936647377e-04  -1.0580441521700168e-03  -1.2070928458666665e-03  -1.3256638307671592e-03  -1.4114761115480055e-03  -1.4633316409993840e-03  -1.4811411006496384e-03  -1.4659089693541310e-03  -1.4196786109441034e-03  -1.3454396391659527e-03  -1.2470012540719269e-03  -1.1288365343568502e-03  -9.9590376608885514e-04  -8.5345174842290272e-04  -7.0681660871335325e-04  -5.6121796066385763e-04  -4.2156223857476357e-04  -2.9226073872837656e-04  -1.7706930740351331e-04  -7.8955756948611666e-05  -2.1983511942793159e-16  5.8669390523966033e-05  9.6899912138575928e-05  1.1550038161351253e-04  1.1618746894956868e-04  1.0149579280128861e-04  7.4655274621827187e-05  3.9440726961398266e-05  0.0000000000000000e+00  0.0000000000000000e+00  -2.4669665656105202e-04  -4.8660672291646237e-04  -7.1324476195403440e-04  -9.2058636050611035e-04  -1.1032719658320010e-03  -1.2567871908247660e-03  -1.3776117689532808e-03  -1.4633316409993586e-03  -1.5127100524368452e-03  -1.5257151040633035e-03  -1.5035028633699449e-03  -1.4483568426043182e-03  -1.3635863146185326e-03  -1.2533875049303238e-03  -1.1226731078329501e-03  -9.7687677206104227e-04  -8.2174014184284460e-04  -6.6309068641547900e-04  -5.0661888075215732e-04  -3.5766330002562086e-04  -2.2101186054060092e-04  -1.0072679348517393e-04  -2.3542615142743293e-16  7.8955756948155962e-05  1.3497577050404849e-04  1.6796992136798111e-04  1.7890597855189176e-04  1.6975050873107266e-04  1.4336988358882875e-04  1.0339542775592424e-04  5.4058146341167716e-05  0.0000000000000000e+00  0.0000000000000000e+00  -2.5234771227474102e-04  -4.9756472150871652e-04  -7.2879581863350459e-04  -9.3967796020541332e-04  -1.1245587281596004e-03  -1.2786894291024935e-03  -1.3983844704051600e-03  -1.4811411006495816e-03  -1.5257151040632714e-03  -1.5321497159325459e-03  -1.5017568112022713e-03  -1.4370512405852678e-03  -1.3416409760283704e-03  -1.2200774109012741e-03  -1.0776716748674741e-03  -9.2028411091604539e-04  -7.5409507319888487e-04  -5.8536590053255750e-04  -4.2019927521518550e-04  -2.6430817683069136e-04  -1.2280228625058477e-04  -2.3811154791695416e-16  1.0072679348469932e-04  1.7706930740305223e-04  2.2785545986087156e-04  2.5307780187065775e-04  2.5387486241333114e-04  2.3246681402197257e-04  1.9204813747418828e-04  1.3664163487552667e-04  7.0919642148475578e-05  0.0000000000000000e+00  0.0000000000000000e+00  -2.5296503699345410e-04  -4.9854807374075691e-04  -7.2961574377827722e-04  -9.3955260723667128e-04  -1.1224918654499697e-03  -1.2735191584464763e-03  -1.3888406253706569e-03  -1.4659089693540377e-03  -1.5035028633698746e-03  -1.5017568112022325e-03  -1.4621404682541785e-03  -1.3873883564939318e-03  -1.2813828011816863e-03  -1.1489947007064130e-03  -9.9588834601043071e-04  -8.2829787090582139e-04  -6.5278398669275093e-04  -4.7598039281642585e-04  -3.0433963166669555e-04  -1.4388815579188032e-04  -2.2665434469012878e-16  1.2280228625011848e-04  2.2101186054013363e-04  2.9226073872792044e-04  3.3539725109133932e-04  3.5051495568348299e-04  3.3893204671909107e-04  3.0312221720233702e-04  2.4659981821896764e-04  1.7376392971841414e-04  8.9707550759610919e-05  0.0000000000000000e+00  0.0000000000000000e+00  -2.4880908689470699e-04  -4.9007666532217115e-04  -7.1648287799032763e-04  -9.2124603830111610e-04  -1.0983631405223019e-03  -1.2428221722150120e-03  -1.3507770472137763e-03  -1.4196786109439692e-03  -1.4483568426042043e-03  -1.4370512405851841e-03  -1.3873883564938863e-03  -1.3023074625529202e-03  -1.1859373186645073e-03  -1.0434288723971943e-03  -8.8075040549309474e-04  -7.0445306946430796e-04  -5.2141587549665717e-04  -3.3857997711729797e-04  -1.6268247831121386e-04  -2.0099255858708649e-16  1.4388815579145103e-04  2.6430817683024586e-04  3.5766330002517125e-04  4.2156223857432219e-04  4.5489963242841339e-04  4.5788553937698871e-04  4.3202295966751679e-04  3.8003440034358409e-04  3.0574045883562833e-04  2.1389526267294326e-04  1.0998527184945203e-04  0.0000000000000000e+00  0.0000000000000000e+00  -2.4027555647069203e-04  -4.7293924439963293e-04  -6.9057472139544772e-04  -8.8631845905318249e-04  -1.0541075305534131e-03  -1.1888982010051299e-03  -1.2868458770249464e-03  -1.3454396391657738e-03  -1.3635863146183713e-03  -1.3416409760282372e-03  -1.2813828011815900e-03  -1.1859373186644561e-03  -1.0596481156464296e-03  -9.0790301648654113e-04  -7.3692148034803042e-04  -5.5351144540976237e-04  -3.6480500963283256e-04  -1.7798313870233119e-04  -1.6218230878899680e-16  1.6268247831084908e-04  3.0433963166630004e-04  4.2019927521477025e-04  5.0661888075173448e-04  5.6121796066343956e-04  5.8296064148479301e-04  5.7218533843883339e-04  5.3058048909113815e-04  4.6110739014314635e-04  3.6787322603001535e-04  2.5595930259835115e-04  1.3121122954871868e-04  0.0000000000000000e+00  0.0000000000000000e+00  -2.2787797600766065e-04  -4.4815878514053943e-04  -6.5341636854844586e-04  -8.3678649652629768e-04  -9.9221928698227727e-04  -1.1147018133918431e-03  -1.2004411984836562e-03  -1.2470012540717022e-03  -1.2533875049301132e-03  -1.2200774109010883e-03  -1.1489947007062625e-03  -1.0434288723970872e-03  -9.0790301648648454e-04  -7.4799509753287088e-04  -5.7011961197499163e-04  -3.8127805567393582e-04  -1.8878782554161461e-04  -1.1256440698368028e-16  1.7798313870205526e-04  3.3857997711697846e-04  4.7598039281607240e-04  5.8536590053218085e-04  6.6309068641509118e-04  7.0681660871296651e-04  7.1559702318808372e-04  6.8990626882571809e-04  6.3161374769952453e-04  5.4390367137221595e-04  4.3114364256911764e-04  2.9870721434759582e-04  1.5275734364071398e-04  0.0000000000000000e+00  0.0000000000000000e+00  -2.1222624025969569e-04  -4.1694975593680220e-04  -6.0681690950891874e-04  -7.7503930944138640e-04  -9.1564851362724384e-04  -1.0237203994750825e-03  -1.0955595377439508e-03  -1.1288365343565792e-03  -1.1226731078326896e-03  -1.0776716748672349e-03  -9.9588834601022427e-04  -8.8075040549292951e-04  -7.3692148034791474e-04  -5.7011961197493189e-04  -3.8689525083035437e-04  -1.9437773231693067e-04  -5.5164733426317746e-17  1.8878782554144602e-04  3.6480500963261085e-04  5.2141587549638915e-04  6.5278398669244583e-04  7.5409507319855332e-04  8.2174014184249787e-04  8.5345174842255339e-04  8.4838821536993190e-04  8.0716258558309096e-04  7.3181523277640191e-04  6.2573121929786093e-04  4.9350562030825646e-04  3.4076203660116523e-04  1.7393132016664097e-04  0.0000000000000000e+00  0.0000000000000000e+00  -1.9400191945609840e-04  -3.8066898346361656e-04  -5.5279630855292695e-04  -7.0374216086945733e-04  -8.2768232689277570e-04  -9.1983402090863259e-04  -9.7663970621399013e-04  -9.9590376608853920e-04  -9.7687677206073241e-04  -9.2028411091575352e-04  -8.2829787090555891e-04  -7.0445306946408451e-04  -5.5351144540958684e-04  -3.8127805567381487e-04  -1.9437773231686906e-04  6.2280868423537334e-18  1.9437773231688142e-04  3.8127805567382707e-04  5.5351144540959855e-04  7.0445306946409568e-04  8.2829787090556942e-04  9.2028411091576350e-04  9.7687677206074195e-04  9.9590376608854787e-04  9.7663970621399815e-04  9.1983402090863964e-04  8.2768232689278166e-04  7.0374216086946232e-04  5.5279630855293075e-04  3.8066898346361916e-04  1.9400191945609973e-04  0.0000000000000000e+00  0.0000000000000000e+00  -1.7393132016663965e-04  -3.4076203660116273e-04  -4.9350562030825267e-04  -6.2573121929785595e-04  -7.3181523277639606e-04  -8.0716258558308392e-04  -8.4838821536992388e-04  -8.5345174842254472e-04  -8.2174014184248855e-04  -7.5409507319854313e-04  -6.5278398669243510e-04  -5.2141587549637777e-04  -3.6480500963259881e-04  -1.8878782554143376e-04  6.7546169803037636e-17  1.9437773231694312e-04  3.8689525083036652e-04  5.7011961197494371e-04  7.3692148034792601e-04  8.8075040549294003e-04  9.9588834601023381e-04  1.0776716748672449e-03  1.1226731078326992e-03  1.1288365343565881e-03  1.0955595377439590e-03  1.0237203994750896e-03  9.1564851362724992e-04  7.7503930944139139e-04  6.0681690950892264e-04  4.1694975593680481e-04  2.1222624025969705e-04  0.0000000000000000e+00  0.0000000000000000e+00  -1.5275734364071268e-04  -2.9870721434759322e-04  -4.3114364256911385e-04  -5.4390367137221118e-04  -6.3161374769951867e-04  -6.8990626882571137e-04  -7.1559702318807592e-04  -7.0681660871295795e-04  -6.6309068641508197e-04  -5.8536590053217077e-04  -4.7598039281606150e-04  -3.3857997711696697e-04  -1.7798313870204325e-04  1.2475105997925110e-16  1.8878782554162697e-04  3.8127805567394807e-04  5.7011961197500367e-04  7.4799509753288227e-04  9.0790301648649538e-04  1.0434288723970969e-03  1.1489947007062721e-03  1.2200774109010983e-03  1.2533875049301228e-03  1.2470012540717113e-03  1.2004411984836644e-03  1.1147018133918500e-03  9.9221928698228312e-04  8.3678649652630245e-04  6.5341636854844955e-04  4.4815878514054198e-04  2.2787797600766198e-04  0.0000000000000000e+00  0.0000000000000000e+00  -1.3121122954871741e-04  -2.5595930259834861e-04  -3.6787322603001166e-04  -4.6110739014314158e-04  -5.3058048909113240e-04  -5.7218533843882667e-04  -5.8296064148478553e-04  -5.6121796066343132e-04  -5.0661888075172537e-04  -4.2019927521476038e-04  -3.0433963166628930e-04  -1.6268247831083781e-04  1.7393482080432738e-16  1.7798313870234331e-04  3.6480500963284482e-04  5.5351144540977440e-04  7.3692148034804192e-04  9.0790301648655208e-04  1.0596481156464400e-03  1.1859373186644657e-03  1.2813828011815995e-03  1.3416409760282470e-03  1.3635863146183814e-03  1.3454396391657827e-03  1.2868458770249544e-03  1.1888982010051369e-03  1.0541075305534188e-03  8.8631845905318704e-04  6.9057472139545130e-04  4.7293924439963532e-04  2.4027555647069328e-04  0.0000000000000000e+00  0.0000000000000000e+00  -1.0998527184945080e-04  -2.1389526267294082e-04  -3.0574045883562464e-04  -3.8003440034357937e-04  -4.3202295966751110e-04  -4.5788553937698210e-04  -4.5489963242840601e-04  -4.2156223857431395e-04  -3.5766330002516214e-04  -2.6430817683023599e-04  -1.4388815579144051e-04  2.1201620498590077e-16  1.6268247831122530e-04  3.3857997711730958e-04  5.2141587549666877e-04  7.0445306946431935e-04  8.8075040549310570e-04  1.0434288723972047e-03  1.1859373186645177e-03  1.3023074625529299e-03  1.3873883564938959e-03  1.4370512405851941e-03  1.4483568426042143e-03  1.4196786109439781e-03  1.3507770472137837e-03  1.2428221722150185e-03  1.0983631405223075e-03  9.2124603830112033e-04  7.1648287799033110e-04  4.9007666532217343e-04  2.4880908689470813e-04  0.0000000000000000e+00  0.0000000000000000e+00  -8.9707550759609753e-05  -1.7376392971841181e-04  -2.4659981821896411e-04  -3.0312221720233247e-04  -3.3893204671908548e-04  -3.5051495568347649e-04  -3.3539725109133205e-04  -2.9226073872791236e-04  -2.2101186054012474e-04  -1.2280228625010894e-04  2.3682562632662462e-16  1.4388815579189097e-04  3.0433963166670661e-04  4.7598039281643702e-04  6.5278398669276199e-04  8.2829787090583223e-04  9.9588834601044155e-04  1.1489947007064234e-03  1.2813828011816967e-03  1.3873883564939420e-03  1.4621404682541883e-03  1.5017568112022420e-03  1.5035028633698837e-03  1.4659089693540468e-03  1.3888406253706640e-03  1.2735191584464824e-03  1.1224918654499747e-03  9.3955260723667519e-04  7.2961574377828026e-04  4.9854807374075908e-04  2.5296503699345524e-04  0.0000000000000000e+00  0.0000000000000000e+00  -7.0919642148474440e-05  -1.3664163487552445e-04  -1.9204813747418503e-04  -2.3246681402196829e-04  -2.5387486241332594e-04  -2.5307780187065168e-04  -2.2785545986086456e-04  -1.7706930740304445e-04  -1.0072679348469079e-04  2.4726987397534995e-16  1.2280228625059450e-04  2.6430817683070166e-04  4.2019927521519602e-04  5.8536590053256802e-04  7.5409507319889539e-04  9.2028411091605569e-04  1.0776716748674840e-03  1.2200774109012841e-03  1.3416409760283806e-03  1.4370512405852782e-03  1.5017568112022811e-03  1.5321497159325554e-03  1.5257151040632801e-03  1.4811411006495901e-03  1.3983844704051670e-03  1.2786894291024991e-03  1.1245587281596052e-03  9.3967796020541722e-04  7.2879581863350763e-04  4.9756472150871858e-04  2.5234771227474210e-04  0.0000000000000000e+00  0.0000000000000000e+00  -5.4058146341166659e-05  -1.0339542775592215e-04  -1.4336988358882571e-04  -1.6975050873106864e-04  -1.7890597855188686e-04  -1.6796992136797531e-04  -1.3497577050404188e-04  -7.8955756948148630e-05  2.4346975380994686e-16  1.0072679348518257e-04  2.2101186054061011e-04  3.5766330002563057e-04  5.0661888075216729e-04  6.6309068641548898e-04  8.2174014184285436e-04  9.7687677206105203e-04  1.1226731078329598e-03  1.2533875049303333e-03  1.3635863146185426e-03  1.4483568426043277e-03  1.5035028633699540e-03  1.5257151040633120e-03  1.5127100524368530e-03  1.4633316409993656e-03  1.3776117689532871e-03  1.2567871908247712e-03  1.1032719658320056e-03  9.2058636050611361e-04  7.1324476195403668e-04  4.8660672291646432e-04  2.4669665656105305e-04  0.0000000000000000e+00  0.0000000000000000e+00  -3.9440726961397297e-05  -7.4655274621825249e-05  -1.0149579280128578e-04  -1.1618746894956496e-04  -1.1550038161350798e-04  -9.6899912138570562e-05  -5.8669390523959908e-05  2.2662937833654509e-16  7.8955756948619093e-05  1.7706930740352128e-04  2.9226073872838502e-04  4.2156223857477246e-04  5.6121796066386674e-04  7.0681660871336235e-04  8.5345174842291183e-04  9.9590376608886403e-04  1.1288365343568589e-03  1.2470012540719358