<?xml version="1.0"?>
<VTKFile type="UnstructuredGrid"  version="0.1"  >
<UnstructuredGrid>
<Piece  NumberOfPoints="1089" NumberOfCells="2048">
<Points>
<DataArray  type="Float64"  NumberOfComponents="3"  format="ascii">0 0 0  0.03125 0 0  0.0625 0 0  0.09375 0 0  0.125 0 0  0.15625 0 0  0.1875 0 0  0.21875 0 0  0.25 0 0  0.28125 0 0  0.3125 0 0  0.34375 0 0  0.375 0 0  0.40625 0 0  0.4375 0 0  0.46875 0 0  0.5 0 0  0.53125 0 0  0.5625 0 0  0.59375 0 0  0.625 0 0  0.65625 0 0  0.6875 0 0  0.71875 0 0  0.75 0 0  0.78125 0 0  0.8125 0 0  0.84375 0 0  0.875 0 0  0.90625 0 0  0.9375 0 0  0.96875 0 0  1 0 0  0 0.03125 0  0.03125 0.03125 0  0.0625 0.03125 0  0.09375 0.03125 0  0.125 0.03125 0  0.15625 0.03125 0  0.1875 0.03125 0  0.21875 0.03125 0  0.25 0.03125 0  0.28125 0.03125 0  0.3125 0.03125 0  0.34375 0.03125 0  0.375 0.03125 0  0.40625 0.03125 0  0.4375 0.03125 0  0.46875 0.03125 0  0.5 0.03125 0  0.53125 0.03125 0  0.5625 0.03125 0  0.59375 0.03125 0  0.625 0.03125 0  0.65625 0.03125 0  0.6875 0.03125 0  0.71875 0.03125 0  0.75 0.03125 0  0.78125 0.03125 0  0.8125 0.03125 0  0.84375 0.03125 0  0.875 0.03125 0  0.90625 0.03125 0  0.9375 0.03125 0  0.96875 0.03125 0  1 0.03125 0  0 0.0625 0  0.03125 0.0625 0  0.0625 0.0625 0  0.09375 0.0625 0  0.125 0.0625 0  0.15625 0.0625 0  0.1875 0.0625 0  0.21875 0.0625 0  0.25 0.0625 0  0.28125 0.0625 0  0.3125 0.0625 0  0.34375 0.0625 0  0.375 0.0625 0  0.40625 0.0625 0  0.4375 0.0625 0  0.46875 0.0625 0  0.5 0.0625 0  0.53125 0.0625 0  0.5625 0.0625 0  0.59375 0.0625 0  0.625 0.0625 0  0.65625 0.0625 0  0.6875 0.0625 0  0.71875 0.0625 0  0.75 0.0625 0  0.78125 0.0625 0  0.8125 0.0625 0  0.84375 0.0625 0  0.875 0.0625 0  0.90625 0.0625 0  0.9375 0.0625 0  0.96875 0.0625 0  1 0.0625 0  0 0.09375 0  0.03125 0.09375 0  0.0625 0.09375 0  0.09375 0.09375 0  0.125 0.09375 0  0.15625 0.09375 0  0.1875 0.09375 0  0.21875 0.09375 0  0.25 0.09375 0  0.28125 0.09375 0  0.3125 0.09375 0  0.34375 0.09375 0  0.375 0.09375 0  0.40625 0.09375 0  0.4375 0.09375 0  0.46875 0.09375 0  0.5 0.09375 0  0.53125 0.09375 0  0.5625 0.09375 0  0.59375 0.09375 0  0.625 0.09375 0  0.65625 0.09375 0  0.6875 0.09375 0  0.71875 0.09375 0  0.75 0.09375 0  0.78125 0.09375 0  0.8125 0.09375 0  0.84375 0.09375 0  0.875 0.09375 0  0.90625 0.09375 0  0.9375 0.09375 0  0.96875 0.09375 0  1 0.09375 0  0 0.125 0  0.03125 0.125 0  0.0625 0.125 0  0.09375 0.125 0  0.125 0.125 0  0.15625 0.125 0  0.1875 0.125 0  0.21875 0.125 0  0.25 0.125 0  0.28125 0.125 0  0.3125 0.125 0  0.34375 0.125 0  0.375 0.125 0  0.40625 0.125 0  0.4375 0.125 0  0.46875 0.125 0  0.5 0.125 0  0.53125 0.125 0  0.5625 0.125 0  0.59375 0.125 0  0.625 0.125 0  0.65625 0.125 0  0.6875 0.125 0  0.71875 0.125 0  0.75 0.125 0  0.78125 0.125 0  0.8125 0.125 0  0.84375 0.125 0  0.875 0.125 0  0.90625 0.125 0  0.9375 0.125 0  0.96875 0.125 0  1 0.125 0  0 0.15625 0  0.03125 0.15625 0  0.0625 0.15625 0  0.09375 0.15625 0  0.125 0.15625 0  0.15625 0.15625 0  0.1875 0.15625 0  0.21875 0.15625 0  0.25 0.15625 0  0.28125 0.15625 0  0.3125 0.15625 0  0.34375 0.15625 0  0.375 0.15625 0  0.40625 0.15625 0  0.4375 0.15625 0  0.46875 0.15625 0  0.5 0.15625 0  0.53125 0.15625 0  0.5625 0.15625 0  0.59375 0.15625 0  0.625 0.15625 0  0.65625 0.15625 0  0.6875 0.15625 0  0.71875 0.15625 0  0.75 0.15625 0  0.78125 0.15625 0  0.8125 0.15625 0  0.84375 0.15625 0  0.875 0.15625 0  0.90625 0.15625 0  0.9375 0.15625 0  0.96875 0.15625 0  1 0.15625 0  0 0.1875 0  0.03125 0.1875 0  0.0625 0.1875 0  0.09375 0.1875 0  0.125 0.1875 0  0.15625 0.1875 0  0.1875 0.1875 0  0.21875 0.1875 0  0.25 0.1875 0  0.28125 0.1875 0  0.3125 0.1875 0  0.34375 0.1875 0  0.375 0.1875 0  0.40625 0.1875 0  0.4375 0.1875 0  0.46875 0.1875 0  0.5 0.1875 0  0.53125 0.1875 0  0.5625 0.1875 0  0.59375 0.1875 0  0.625 0.1875 0  0.65625 0.1875 0  0.6875 0.1875 0  0.71875 0.1875 0  0.75 0.1875 0  0.78125 0.1875 0  0.8125 0.1875 0  0.84375 0.1875 0  0.875 0.1875 0  0.90625 0.1875 0  0.9375 0.1875 0  0.96875 0.1875 0  1 0.1875 0  0 0.21875 0  0.03125 0.21875 0  0.0625 0.21875 0  0.09375 0.21875 0  0.125 0.21875 0  0.15625 0.21875 0  0.1875 0.21875 0  0.21875 0.21875 0  0.25 0.21875 0  0.28125 0.21875 0  0.3125 0.21875 0  0.34375 0.21875 0  0.375 0.21875 0  0.40625 0.21875 0  0.4375 0.21875 0  0.46875 0.21875 0  0.5 0.21875 0  0.53125 0.21875 0  0.5625 0.21875 0  0.59375 0.21875 0  0.625 0.21875 0  0.65625 0.21875 0  0.6875 0.21875 0  0.71875 0.21875 0  0.75 0.21875 0  0.78125 0.21875 0  0.8125 0.21875 0  0.84375 0.21875 0  0.875 0.21875 0  0.90625 0.21875 0  0.9375 0.21875 0  0.96875 0.21875 0  1 0.21875 0  0 0.25 0  0.03125 0.25 0  0.0625 0.25 0  0.09375 0.25 0  0.125 0.25 0  0.15625 0.25 0  0.1875 0.25 0  0.21875 0.25 0  0.25 0.25 0  0.28125 0.25 0  0.3125 0.25 0  0.34375 0.25 0  0.375 0.25 0  0.40625 0.25 0  0.4375 0.25 0  0.46875 0.25 0  0.5 0.25 0  0.53125 0.25 0  0.5625 0.25 0  0.59375 0.25 0  0.625 0.25 0  0.65625 0.25 0  0.6875 0.25 0  0.71875 0.25 0  0.75 0.25 0  0.78125 0.25 0  0.8125 0.25 0  0.84375 0.25 0  0.875 0.25 0  0.90625 0.25 0  0.9375 0.25 0  0.96875 0.25 0  1 0.25 0  0 0.28125 0  0.03125 0.28125 0  0.0625 0.28125 0  0.09375 0.28125 0  0.125 0.28125 0  0.15625 0.28125 0  0.1875 0.28125 0  0.21875 0.28125 0  0.25 0.28125 0  0.28125 0.28125 0  0.3125 0.28125 0  0.34375 0.28125 0  0.375 0.28125 0  0.40625 0.28125 0  0.4375 0.28125 0  0.46875 0.28125 0  0.5 0.28125 0  0.53125 0.28125 0  0.5625 0.28125 0  0.59375 0.28125 0  0.625 0.28125 0  0.65625 0.28125 0  0.6875 0.28125 0  0.71875 0.28125 0  0.75 0.28125 0  0.78125 0.28125 0  0.8125 0.28125 0  0.84375 0.28125 0  0.875 0.28125 0  0.90625 0.28125 0  0.9375 0.28125 0  0.96875 0.28125 0  1 0.28125 0  0 0.3125 0  0.03125 0.3125 0  0.0625 0.3125 0  0.09375 0.3125 0  0.125 0.3125 0  0.15625 0.3125 0  0.1875 0.3125 0  0.21875 0.3125 0  0.25 0.3125 0  0.28125 0.3125 0  0.3125 0.3125 0  0.34375 0.3125 0  0.375 0.3125 0  0.40625 0.3125 0  0.4375 0.3125 0  0.46875 0.3125 0  0.5 0.3125 0  0.53125 0.3125 0  0.5625 0.3125 0  0.59375 0.3125 0  0.625 0.3125 0  0.65625 0.3125 0  0.6875 0.3125 0  0.71875 0.3125 0  0.75 0.3125 0  0.78125 0.3125 0  0.8125 0.3125 0  0.84375 0.3125 0  0.875 0.3125 0  0.90625 0.3125 0  0.9375 0.3125 0  0.96875 0.3125 0  1 0.3125 0  0 0.34375 0  0.03125 0.34375 0  0.0625 0.34375 0  0.09375 0.34375 0  0.125 0.34375 0  0.15625 0.34375 0  0.1875 0.34375 0  0.21875 0.34375 0  0.25 0.34375 0  0.28125 0.34375 0  0.3125 0.34375 0  0.34375 0.34375 0  0.375 0.34375 0  0.40625 0.34375 0  0.4375 0.34375 0  0.46875 0.34375 0  0.5 0.34375 0  0.53125 0.34375 0  0.5625 0.34375 0  0.59375 0.34375 0  0.625 0.34375 0  0.65625 0.34375 0  0.6875 0.34375 0  0.71875 0.34375 0  0.75 0.34375 0  0.78125 0.34375 0  0.8125 0.34375 0  0.84375 0.34375 0  0.875 0.34375 0  0.90625 0.34375 0  0.9375 0.34375 0  0.96875 0.34375 0  1 0.34375 0  0 0.375 0  0.03125 0.375 0  0.0625 0.375 0  0.09375 0.375 0  0.125 0.375 0  0.15625 0.375 0  0.1875 0.375 0  0.21875 0.375 0  0.25 0.375 0  0.28125 0.375 0  0.3125 0.375 0  0.34375 0.375 0  0.375 0.375 0  0.40625 0.375 0  0.4375 0.375 0  0.46875 0.375 0  0.5 0.375 0  0.53125 0.375 0  0.5625 0.375 0  0.59375 0.375 0  0.625 0.375 0  0.65625 0.375 0  0.6875 0.375 0  0.71875 0.375 0  0.75 0.375 0  0.78125 0.375 0  0.8125 0.375 0  0.84375 0.375 0  0.875 0.375 0  0.90625 0.375 0  0.9375 0.375 0  0.96875 0.375 0  1 0.375 0  0 0.40625 0  0.03125 0.40625 0  0.0625 0.40625 0  0.09375 0.40625 0  0.125 0.40625 0  0.15625 0.40625 0  0.1875 0.40625 0  0.21875 0.40625 0  0.25 0.40625 0  0.28125 0.40625 0  0.3125 0.40625 0  0.34375 0.40625 0  0.375 0.40625 0  0.40625 0.40625 0  0.4375 0.40625 0  0.46875 0.40625 0  0.5 0.40625 0  0.53125 0.40625 0  0.5625 0.40625 0  0.59375 0.40625 0  0.625 0.40625 0  0.65625 0.40625 0  0.6875 0.40625 0  0.71875 0.40625 0  0.75 0.40625 0  0.78125 0.40625 0  0.8125 0.40625 0  0.84375 0.40625 0  0.875 0.40625 0  0.90625 0.40625 0  0.9375 0.40625 0  0.96875 0.40625 0  1 0.40625 0  0 0.4375 0  0.03125 0.4375 0  0.0625 0.4375 0  0.09375 0.4375 0  0.125 0.4375 0  0.15625 0.4375 0  0.1875 0.4375 0  0.21875 0.4375 0  0.25 0.4375 0  0.28125 0.4375 0  0.3125 0.4375 0  0.34375 0.4375 0  0.375 0.4375 0  0.40625 0.4375 0  0.4375 0.4375 0  0.46875 0.4375 0  0.5 0.4375 0  0.53125 0.4375 0  0.5625 0.4375 0  0.59375 0.4375 0  0.625 0.4375 0  0.65625 0.4375 0  0.6875 0.4375 0  0.71875 0.4375 0  0.75 0.4375 0  0.78125 0.4375 0  0.8125 0.4375 0  0.84375 0.4375 0  0.875 0.4375 0  0.90625 0.4375 0  0.9375 0.4375 0  0.96875 0.4375 0  1 0.4375 0  0 0.46875 0  0.03125 0.46875 0  0.0625 0.46875 0  0.09375 0.46875 0  0.125 0.46875 0  0.15625 0.46875 0  0.1875 0.46875 0  0.21875 0.46875 0  0.25 0.46875 0  0.28125 0.46875 0  0.3125 0.46875 0  0.34375 0.46875 0  0.375 0.46875 0  0.40625 0.46875 0  0.4375 0.46875 0  0.46875 0.46875 0  0.5 0.46875 0  0.53125 0.46875 0  0.5625 0.46875 0  0.59375 0.46875 0  0.625 0.46875 0  0.65625 0.46875 0  0.6875 0.46875 0  0.71875 0.46875 0  0.75 0.46875 0  0.78125 0.46875 0  0.8125 0.46875 0  0.84375 0.46875 0  0.875 0.46875 0  0.90625 0.46875 0  0.9375 0.46875 0  0.96875 0.46875 0  1 0.46875 0  0 0.5 0  0.03125 0.5 0  0.0625 0.5 0  0.09375 0.5 0  0.125 0.5 0  0.15625 0.5 0  0.1875 0.5 0  0.21875 0.5 0  0.25 0.5 0  0.28125 0.5 0  0.3125 0.5 0  0.34375 0.5 0  0.375 0.5 0  0.40625 0.5 0  0.4375 0.5 0  0.46875 0.5 0  0.5 0.5 0  0.53125 0.5 0  0.5625 0.5 0  0.59375 0.5 0  0.625 0.5 0  0.65625 0.5 0  0.6875 0.5 0  0.71875 0.5 0  0.75 0.5 0  0.78125 0.5 0  0.8125 0.5 0  0.84375 0.5 0  0.875 0.5 0  0.90625 0.5 0  0.9375 0.5 0  0.96875 0.5 0  1 0.5 0  0 0.53125 0  0.03125 0.53125 0  0.0625 0.53125 0  0.09375 0.53125 0  0.125 0.53125 0  0.15625 0.53125 0  0.1875 0.53125 0  0.21875 0.53125 0  0.25 0.53125 0  0.28125 0.53125 0  0.3125 0.53125 0  0.34375 0.53125 0  0.375 0.53125 0  0.40625 0.53125 0  0.4375 0.53125 0  0.46875 0.53125 0  0.5 0.53125 0  0.53125 0.53125 0  0.5625 0.53125 0  0.59375 0.53125 0  0.625 0.53125 0  0.65625 0.53125 0  0.6875 0.53125 0  0.71875 0.53125 0  0.75 0.53125 0  0.78125 0.531
[...]
<PointData  Scalars="theta"> 
<DataArray  type="Float64"  Name="theta"  format="ascii">-1.1644288062045695e-04  -3.1774983699629929e-04  -3.3364812356107991e-04  -3.5065979731527322e-05  -2.1409310507441703e-05  -3.7265552451531676e-04  -2.0909076768219190e-04  -4.5524735023060519e-04  -1.8566773704810360e-04  -3.9788340633246401e-05  -2.6777745529871753e-05  -1.0336713714196173e-04  -7.3907450534579732e-05  -7.1269301410631066e-04  -6.2099116862025707e-04  -5.0757395926656276e-04  -3.7181099858167474e-04  -2.0746918835610331e-04  -3.9855820915477519e-05  -6.4582023623340462e-06  -1.6670620246665665e-05  -1.5817704616252222e-04  -4.6709236745794754e-04  -2.0277507613316180e-04  -5.4048719274521863e-04  -2.4824061468176582e-04  -6.9163323549732887e-04  -4.2711004550750978e-04  -1.2862127868268184e-04  -7.3160984006779813e-04  -5.6412957328845622e-04  -4.5179713184316164e-04  -3.6450913637785058e-04  -1.0860793828122468e-05  -1.0569764865427083e-04  -2.9714204455216808e-04  -3.1214735993243030e-04  -1.7800113782977397e-05  -1.9433680856124472e-05  -3.4864106802146065e-04  -1.7254357494401746e-04  -4.2661485408844463e-04  -1.6012751863623214e-04  -3.7118729963302484e-05  -2.5041064160597638e-05  -8.9148084865089383e-05  -3.7516733854223128e-05  -6.6487466218280986e-04  -5.8097360703628271e-04  -4.7565041391654745e-04  -3.4842617936831739e-04  -1.9409957628856910e-04  -3.7181682635721579e-05  -3.2782981614423130e-06  -1.4377430870145731e-05  -1.4791841072919865e-04  -4.3575266471665826e-04  -1.7488159385528471e-04  -5.0649359024906881e-04  -2.0485037947058155e-04  -6.4706339780296561e-04  -3.8769675987242186e-04  -6.5290444270842628e-05  -6.8446385263708448e-04  -5.2754272475433661e-04  -4.1010574669840533e-04  -1.9286085655868939e-04  -8.3649341806404349e-06  -9.3945912580618694e-05  -2.7630193760153223e-04  -2.9251504779591022e-04  0.0000000000000000e+00  -1.7272994300950734e-05  -3.2671350703715929e-04  -1.3289227938033843e-04  -4.0017538282943993e-04  -1.3213866312072184e-04  -3.4668795201091844e-05  -2.3284804941034491e-05  -7.3565798397253899e-05  0.0000000000000000e+00  -6.2099116862025707e-04  -5.4443363694367877e-04  -4.4617196203527976e-04  -3.2683245409830235e-04  -1.8189180535599302e-04  -3.4727592829933582e-05  0.0000000000000000e+00  -1.1864384775783203e-05  -1.3754412827378070e-04  -4.0699183151814340e-04  -1.4431385818795530e-04  -4.7510363138119472e-04  -1.5777483379839267e-04  -6.0636675183250164e-04  -3.4459163826717706e-04  0.0000000000000000e+00  -6.4141492855185388e-04  -4.9054342759502782e-04  -2.4818245884755257e-04  -1.7992079943920773e-04  -5.6960814795531183e-06  -8.1022832004751401e-05  -2.5447782175595042e-04  -2.7438641695966894e-04  -3.8200241542854078e-05  -1.4896943113560022e-05  -3.0646542543274617e-04  -9.0492672746408833e-05  -3.7521118527564034e-04  -1.0177259942643983e-04  -3.2434688313413585e-05  -2.1445620298009049e-05  -5.6660044493789400e-05  -6.2265206289993961e-04  -5.8097360703628271e-04  -5.1069234228771833e-04  -4.1833835336984519e-04  -3.0644361884958171e-04  -1.7061905403505277e-04  -3.2489696938720222e-05  -3.8400772059845958e-05  -9.1378953798237790e-06  -1.2668000254457368e-04  -3.8076469415298798e-04  -1.1114987948401292e-04  -4.4546517429153696e-04  -1.0743638734402928e-04  -5.6878715010544193e-04  -2.9719004957884116e-04  -8.3964675894868460e-04  -6.0166321478469220e-04  -5.9586703278605926e-05  -2.3208648646704097e-04  -1.6804554881973247e-04  -2.8914320726078739e-06  -6.6860766934660900e-05  -2.3099486418527466e-04  -2.5726933026975655e-04  -3.5637184858554311e-05  -1.2293090933876872e-05  -2.8734714941631989e-04  -4.5935687060344300e-05  -3.5087671416474911e-04  -6.9301802763801172e-05  -3.0394728964862581e-05  -1.9466640015719699e-05  -3.8582518774465698e-05  -5.8087503565212981e-04  -5.4443363694367877e-04  -4.7883374960782570e-04  -3.9120685256669677e-04  -2.8656909569395160e-04  -1.5997530143523615e-04  -3.0446277857232651e-05  -3.5824260720255452e-05  -6.2224275183864241e-06  -1.1499009925838383e-04  -3.5681673788068053e-04  -7.5687238693248661e-05  -4.1657435269531486e-04  -5.4536617365245325e-05  -5.3330442080585670e-04  -2.4524389173444298e-04  -7.8331040736934134e-04  -2.8655646049166888e-05  -4.5893408792666177e-05  -2.1580906195426292e-04  -1.5721645262864204e-04  0.0000000000000000e+00  -5.1495859651380917e-05  -2.0531226184892853e-04  -2.4058402521796662e-04  -3.3285036008132515e-05  -9.4680829197071976e-06  -2.6871113540428678e-04  0.0000000000000000e+00  -3.2626791718113246e-04  -3.5178825288945914e-05  -2.8511014520346035e-05  -1.7302288976522861e-05  -1.9585171424766526e-05  -5.4253574053746796e-04  -5.1069234228771833e-04  -4.4777879574713151e-04  -3.6376949458661375e-04  -2.6647052427835222e-04  -1.4960003943878997e-04  -2.8559368668217196e-05  -3.3459764366101581e-05  -3.1586146653140670e-06  -1.0220520465786439e-04  -3.3470300743853275e-04  -3.8420185917346840e-05  -3.8735784085450030e-04  0.0000000000000000e+00  -4.9871674983363622e-04  -1.8888573386328277e-04  -6.0640815720012908e-05  -2.6853367190128440e-05  -3.1251004516266473e-05  -1.9876306506585726e-04  -1.4732842259157860e-04  -3.8200241542854078e-05  -3.5065979731527315e-05  -1.7706976752209557e-04  -2.2371062440485265e-04  -3.1140100547553089e-05  -6.4472679164211102e-06  -2.4986503501788062e-04  -6.0435306421674148e-04  -3.0049716478226026e-04  0.0000000000000000e+00  -2.6732407865652020e-05  -1.4922208050717105e-05  0.0000000000000000e+00  -5.0757395926656265e-04  -4.7883374960782570e-04  -4.1637375507824428e-04  -3.3503662481428482e-04  -2.4542295710685289e-04  -1.3910781567280466e-04  -2.6777745529871773e-05  -3.1303569159524424e-05  0.0000000000000000e+00  -8.8145986339737415e-05  -3.1382318234667386e-04  0.0000000000000000e+00  -3.5676181077998604e-04  -7.9376680405598228e-04  -4.6373916724255402e-04  -1.9239812749142612e-04  -5.0041344473687826e-05  -2.5189128771735939e-05  -1.5863564642448819e-05  -1.8042140923372243e-04  -1.3819773818756818e-04  -3.5637184858554311e-05  -1.7800113782977393e-05  -1.4611955870383729e-04  -2.0604051095838124e-04  -2.9181563483377624e-05  -3.2727476425948651e-06  -2.3012907689421837e-04  -5.6380381378385962e-04  -2.7276758849935112e-04  -2.3168278781701549e-04  -2.4998666888678259e-05  -1.2313939786392660e-05  -4.5610867352275790e-04  -4.7565041391654729e-04  -4.4777879574713151e-04  -3.8348586024562726e-04  -3.0411978188138076e-04  -2.2277557334333931e-04  -1.2812017978931206e-04  -2.5041064160597662e-05  -2.9334750839677160e-05  -2.3542967863967497e-04  -7.2738857715333566e-05  -2.9347005465637604e-04  -6.6302744534037325e-04  -3.2384018952601922e-04  -7.4050878183566128e-04  -2.6244819667825938e-05  -1.8047424647006514e-04  -3.8541616704781584e-05  -2.3617751785926380e-05  0.0000000000000000e+00  -1.6036169352248348e-04  -1.2957652912365842e-04  -3.3285036008132515e-05  0.0000000000000000e+00  -1.1254062183713543e-04  -1.8702729973514074e-04  -2.7373035014156468e-05  0.0000000000000000e+00  -2.0889299702212495e-04  -5.2659126465242072e-04  -2.4244058737583652e-04  -2.1613796155497611e-04  -2.3245381208866260e-05  -9.4841406114189090e-06  -4.2550592502630790e-04  -4.4617196203527960e-04  -4.1637375507824428e-04  -3.4809817057207093e-04  -2.7030696336602551e-04  -1.9800681287497033e-04  -1.1629737839475629e-04  -2.3284804941034508e-05  -2.7516728578420138e-05  -2.1963345361206534e-04  -5.6023138528624487e-05  -2.7288748333071473e-04  -6.1854141967617848e-04  -2.8783480543465332e-04  -1.6553010430195176e-05  -1.3322336346444845e-05  -1.6921569600552523e-04  -2.6244819667825928e-05  -2.2086013071589765e-05  -3.2353949128684499e-04  -1.3830254236042296e-04  -1.2117279163301612e-04  -3.1140100547553089e-05  -3.8291798474363031e-04  -7.6634261298493461e-05  -1.6623312414998316e-04  -2.5665419096083550e-05  -2.3168278781701541e-04  -1.8566773704810355e-04  -4.9265696827646439e-04  -2.0909076768219190e-04  -2.0187228204572572e-04  -2.1409310507441714e-05  -6.4582023623340412e-06  -3.9742140386194753e-04  -4.1833835336984503e-04  -3.8348586024562726e-04  -3.0939572183865879e-04  -2.3312388033620762e-04  -1.7076924684294033e-04  -1.0336713714196181e-04  -2.1445620298009066e-05  -2.5800148604387246e-05  -2.0513706234327576e-04  -3.8148819214606756e-05  -2.5133306318905242e-04  -5.7771604317676754e-04  -1.9252693243153056e-05  -1.5025515268074484e-05  0.0000000000000000e+00  -1.5824114453278387e-04  -1.3322336346444842e-05  -2.0537006853978363e-05  -3.0183151190542096e-04  -1.1412849714619993e-04  -1.1267431764241995e-04  -2.9181563483377624e-05  -3.5722598750233665e-04  -3.8900911402773750e-05  -1.4336630643798433e-04  -2.4000878101433438e-05  -2.1613796155497600e-04  -1.6012751863623209e-04  -4.6167161770509034e-04  -1.7254357494401746e-04  -1.8886334264838891e-04  -1.9433680856124486e-05  -3.2782981614423105e-06  -3.7181099858167463e-04  -3.9120685256669661e-04  -3.4809817057207093e-04  -2.6683563877258104e-04  -1.9237591484273100e-04  -1.4092031258675135e-04  -8.9148084865089437e-05  -1.9466640015719712e-05  -2.4126869673725998e-05  -1.9191773582094066e-04  -1.9365017829395124e-05  -2.2814030077757328e-04  -1.2492500374232043e-04  -1.8059506871927342e-05  -1.3354939885848068e-05  -2.5185953270638882e-04  -1.4714287541699986e-04  0.0000000000000000e+00  -1.8914861093462185e-05  -2.8190983047723738e-04  -8.7901251222665877e-05  -1.0377457056718837e-04  -2.7373035014156464e-05  -3.3364812356107991e-04  0.0000000000000000e+00  -1.1830716063431503e-04  -2.2317572504957233e-05  -2.0187228204572566e-04  -1.3213866312072181e-04  -4.3305950223270840e-04  -1.3289227938033843e-04  -1.7698490134162169e-04  -1.7272994300950741e-05  0.0000000000000000e+00  -3.4842617936831728e-04  -3.6376949458661364e-04  -3.0939572183865879e-04  -2.2019515996168424e-04  -1.4816705768165038e-04  -1.0853618604297097e-04  -7.3565798397253940e-05  -1.7302288976522871e-05  -2.2434727637272361e-05  -1.7984719037411541e-04  0.0000000000000000e+00  -2.0242738344148279e-05  -1.1654312308015941e-04  -1.6932898098325820e-05  -1.1517851294233453e-05  -2.3496094168351398e-04  -1.3552057849491411e-04  -3.0763102682515448e-05  -1.7169416726451792e-05  -2.6374315666234882e-04  -5.9856142117383519e-05  -9.4198357517544088e-05  -2.5665419096083547e-05  -3.1214735993243030e-04  -4.7293677449877975e-04  -9.1119638901715556e-05  -2.0554786141718726e-05  -1.8886334264838885e-04  -1.0177259942643980e-04  -4.0604389000326946e-04  -9.0492672746408833e-05  -1.6601625557728674e-04  -1.4896943113560031e-05  -2.3810618999981327e-04  -3.2683245409830219e-04  -3.3503662481428471e-04  -2.6683563877258104e-04  -1.6959331418350823e-04  -1.0089399568661174e-04  -7.3907450534579772e-05  -5.6660044493789441e-05  -1.4922208050717114e-05  -2.0662687603206411e-05  -1.6870115414181075e-04  -7.7867155530066648e-06  -1.0275573321024809e-05  -1.0885096742685559e-04  -1.5834708236809116e-05  -9.5046340879156741e-06  -2.1945289549332120e-04  -1.2301487574726359e-04  -2.8699043064678526e-05  -1.5260476873231536e-05  -2.4715519648678565e-04  -3.0384040270848755e-05  -8.3725142169692782e-05  -2.4000878101433434e-05  -2.9251504779591022e-04  -4.4120493951102367e-04  -6.2047695339055537e-05  -1.8658011139835839e-05  -1.7698490134162160e-04  -6.9301802763801159e-05  -3.7970975152661470e-04  -4.5935687060344300e-05  -1.5565964000520922e-04  -1.2293090933876879e-05  -2.2213038363828693e-04  -3.0644361884958160e-04  -3.0411978188138065e-04  -2.2019515996168424e-04  -1.1548415266822269e-04  -5.1215583223138339e-05  -3.7516733854223142e-05  -3.8582518774465725e-05  -1.2313939786392667e-05  -1.8755955562928412e-05  -6.9973853651426466e-06  -5.9972930261884954e-06  0.0000000000000000e+00  -1.0183645496260008e-04  -1.4724138328452437e-05  -7.3204260954312200e-06  -2.0531103614981777e-04  -1.0933776588417168e-04  -2.6804829999849828e-05  -1.3161265030569463e-05  -2.3183774410227192e-04  0.0000000000000000e+00  -7.2208017807774539e-05  -2.2317572504957229e-05  -2.7438641695966894e-04  -4.1208424169523756e-04  -3.1496511589371165e-05  -1.6583565536113772e-05  -1.6601625557728666e-04  -3.5178825288945901e-05  -3.5307874464928022e-04  0.0000000000000000e+00  -1.4556427195253294e-04  -9.4680829197072043e-06  -2.0746918835610315e-04  -2.8656909569395149e-04  -2.7030696336602546e-04  -1.6959331418350823e-04  -5.8621805903141726e-05  0.0000000000000000e+00  0.0000000000000000e+00  -1.9585171424766543e-05  -9.4841406114189158e-06  -3.1148175030268532e-05  -5.7743050998683128e-06  -4.0838420238842722e-06  -1.7067958452592091e-04  -9.5431515093381849e-05  -1.3561130557330911e-05  -4.9848262525636107e-06  -1.9239812749142612e-04  -9.4297401490521962e-05  -2.5077488308903977e-05  -1.0860793828122466e-05  -2.1737497729419186e-04  -3.2353949128684494e-04  -5.9586703278605926e-05  -2.0554786141718722e-05  -2.5726933026975655e-04  -3.8552894211430459e-04  0.0000000000000000e+00  -1.4302351295159266e-05  -1.5565964000520914e-04  0.0000000000000000e+00  -3.2519029952027381e-04  -4.2768561359783186e-04  -1.3535509741362101e-04  -6.4472679164211136e-06  -1.9409957628856896e-04  -2.6647052427835211e-04  -2.3312388033620756e-04  -1.1548415266822269e-04  0.0000000000000000e+00  -4.5610867352275801e-04  -2.3810618999981352e-04  0.0000000000000000e+00  -2.5703753122535629e-05  -2.5703753122535629e-05  -4.4473436162893138e-06  -2.0730307053559277e-06  -1.5922778651825876e-04  -8.9517143438634807e-05  -1.2309723062207026e-05  -2.5303862935912435e-06  -1.8047424647006514e-04  -7.7815060614422904e-05  -2.3500255433421995e-05  -8.3649341806404332e-06  -2.0327703642041380e-04  -3.0183151190542090e-04  -4.5893408792666177e-05  -1.8658011139835836e-05  -2.4058402521796662e-04  -3.6128134145899609e-04  -2.1640440017126053e-04  -1.1802428437791597e-05  -1.4556427195253289e-04  -5.5846186861204308e-04  -2.9518206558720663e-04  -3.9898991884728833e-04  -1.2466387551381307e-04  -3.2727476425948668e-06  -1.8189180535599291e-04  -2.4542295710685278e-04  -1.9237591484273095e-04  -5.8621805903141726e-05  -6.2265206289993972e-04  -4.2550592502630801e-04  -2.2213038363828712e-04  -3.0284077625599257e-06  -1.9796914154534770e-05  -1.9796914154534770e-05  -3.0284077625599257e-06  0.0000000000000000e+00  -1.4871832971069535e-04  -8.3932782807920138e-05  -1.0941096433245958e-05  0.0000000000000000e+00  -1.6921569600552523e-04  -5.9932806993972672e-05  -2.2043826239368623e-05  -5.6960814795531166e-06  -1.8902016750105773e-04  -2.8190983047723733e-04  -3.1251004516266473e-05  -1.6583565536113769e-05  -2.2371062440485265e-04  -3.3889091704602083e-04  -2.0188468191899238e-04  -9.0901768891153609e-06  -1.3535509741362096e-04  -5.2099170173713243e-04  -2.6236296532696483e-04  -3.7265552451531687e-04  -1.1316001840325359e-04  0.0000000000000000e+00  -1.7061905403505266e-04  -2.2277557334333926e-04  -1.4816705768165033e-04  0.0000000000000000e+00  -5.8087503565212991e-04  -3.9742140386194764e-04  -1.8689361322522653e-05  -1.5372735388411965e-06  -1.3480660293649194e-05  -1.3480660293649194e-05  -1.5372735388411965e-06  -1.2492500374232046e-04  -1.3913470723972445e-04  -7.8489288694077040e-05  -9.4360530853106537e-06  -1.6196594252612372e-04  -1.5824114453278387e-04  -4.0811098397652005e-05  -2.0668663106668434e-05  -2.8914320726078735e-06  -1.7409013093126901e-04  -2.6374315666234877e-04  -1.5863564642448819e-05  -1.4302351295159264e-05  -2.0604051095838124e-04  -3.1774983699629924e-04  -1.8855975672138543e-04  -6.1899337288016220e-06  -1.2466387551381301e-04  -4.8660486570661665e-04  -2.2627264859142519e-04  -3.4864106802146076e-04  -1.0057859689297553e-04  -3.9855820915477485e-05  -1.5997530143523604e-04  -1.9800681287497027e-04  -1.0089399568661172e-04  -7.1269301410631066e-04  -5.4253574053746807e-04  -8.7701103588031361e-06  -1.7435393009017418e-05  0.0000000000000000e+00  -6.8430224660421784e-06  -6.8430224660421784e-06  0.0000000000000000e+00  -1.1654312308015947e-04  -1.3038391722136616e-04  -7.2984429315024331e-05  -7.7867155530066597e-06  -1.5109878894661578e-04  -1.4714287541699986e-04  -2.0716438001969136e-05  -1.9328188715158814e-05  0.0000000000000000e+00  -1.5802526865791536e-04  -2.4715519648678560e-04  0.0000000000000000e+00  -1.1802428437791597e-05  -1.8702729973514074e-04  -2.9714204455216808e-04  -1.7640869554989952e-04  -3.1421202409096182e-06  -1.1316001840325352e-04  -4.5524735023060519e-04  -1.8672221701991994e-04  -3.2671350703715940e-04  -8.6743132675836740e-05  -3.7181682635721545e-05  -1.4960003943878988e-04  -1.7076924684294024e-04  -5.1215583223138326e-05  -6.6487466218280986e-04  -2.0680953184194303e-05  -8.2265824470398890e-06  -1.6284610763293306e-05  -8.3193859891979671e-05  0.0000000000000000e+00  0.0000000000000000e+00  -2.5202814532465077e-05  -1.0885096742685563e-04  -1.2230336916033667e-04  -6.7219646577265004e-05  -5.9972930261884920e-06  -1.4112586756880402e-04  -1.3552057849491411e-04  0.0000000000000000e+00  -1.7972602969650948e-05  -1.9286085655868939e-04  -1.4045561338289466e-04  -2.3183774410227186e-04  -3.5152506941109484e-05  -9.0901768891153609e-06  -1.6623312414998316e-04  -2.7630193760153223e-04  -1.6531358144936166e-04  0.0000000000000000e+00  -1.0057859689297549e-04  -4.2661485408844463e-04  -1.4381260524350662e-04  -3.0646542543274634e-04  -7.1581210302317950e-05  -3.4727592829933555e-05  -1.3910781567280458e-04  -1.4092031258675130e-04  0.0000000000000000e+00  -1.8602979222203290e-06  -1.8772535614464726e-05  -7.7133823897338779e-06  -1.5235207088939852e-05  -7.7611942865365345e-05  -8.3193859891979671e-05  -1.8689361322522653e-05  -2.3511824118749076e-05  -1.0183645496260012e-04  -1.1467370076937710e-04  -6.1016685165548877e-05  -4.0838420238842696e-06  -1.3203151424800831e-04  -1.2301487574726359e-04  -1.6196594252612363e-04  -1.6553010430195176e-05  -1.7992079943920773e-04  -1.2113471735644554e-04  -2.1737497729419180e-04  -3.2793938925663024e-05  -6.1899337288016220e-06  -1.4336630643798433e-04  -2.5447782175595042e-04  -1.5506826616423709e-04  -3.9788340633246388e-05  -8.6743132675836686e-05  -4.0017538282943993e-04  -9.7928841944707883e-05  -2.8734714941632000e-04  -5.5131523738074859e-05  -3.2489696938720195e-05  -1.2812017978931198e-04  -1.0853618604297091e-04  -8.7701103588031361e-06  -9.4432024826576863e-07  -1.6685356885484453e-05  -7.2131278976074085e-06  -1.4276998308640263e-05  -7.2489348504605942e-05  -7.7611942865365345e-05  -1.7435393009017418e-05  -2.1959981281225954e-05  -9.5431515093381890e-05  -1.0723649215710880e-04  -5.4232693380640975e-05  -2.0730307053559260e-06  -1.2372747509119660e-04  -1.0933776588417168e-04  -1.5109878894661573e-04  -1.5025515268074479e-05  -1.6804554881973247e-04  -9.9961454129255455e-05  -2.0327703642041375e-04  -3.0629451858265364e-05  -3.1421202409096182e-06  -1.1830716063431503e-04  -2.3099486418527466e-04  -1.4539462056545438e-04  -3.7118729963302470e-05  -7.1581210302317923e-05  -3.7521118527564034e-04  -4.9710418548031422e-05  -2.6871113540428689e-04  -3.7541676302819193e-05  -3.0446277857232627e-05  -1.1629737839475620e-04  -1.4483493655224302e-06  -8.2265824470398890e-06  0.0000000000000000e+00  -1.4390140355620202e-05  -6.7072339671092554e-06  -1.3392180813823508e-05  -6.7818030916611129e-05  -7.2489348504605942e-05  -1.6284610763293306e-05  -2.0544848590600246e-05  -8.9517143438634848e-05  -9.9715442859176769e-05  -4.6772512866636182e-05  0.0000000000000000e+00  -1.1605946027578955e-04  -9.4297401490521962e-05  -1.4112586756880396e-04  -1.3354939885848064e-05  -1.5721645262864204e-04  -7.6989858902135224e-05  -1.8902016750105768e-04  -2.8655646049166884e-05  0.0000000000000000e+00  -9.1119638901715556e-05  -2.0531226184892853e-04  -1.3596499444375477e-04  -3.4668795201091831e-05  -5.5131523738074832e-05  -3.5087671416474911e-04  0.0000000000000000e+00  -2.4986503501788068e-04  -1.9056821309717385e-05  -2.8559368668217176e-05  -3.1534496628969119e-06  -1.1951908736352288e-06  -7.7133823897338779e-06  -3.8434717905881401e-05  -1.1874872757073690e-05  -6.1774532049029683e-06  -1.25567