<?xml version="1.0"?>
<VTKFile type="UnstructuredGrid"  version="0.1"  >
<UnstructuredGrid>
<Piece  NumberOfPoints="1089" NumberOfCells="2048">
<Points>
<DataArray  type="Float64"  NumberOfComponents="3"  format="ascii">0 0 0  0.03125 0 0  0.0625 0 0  0.09375 0 0  0.125 0 0  0.15625 0 0  0.1875 0 0  0.21875 0 0  0.25 0 0  0.28125 0 0  0.3125 0 0  0.34375 0 0  0.375 0 0  0.40625 0 0  0.4375 0 0  0.46875 0 0  0.5 0 0  0.53125 0 0  0.5625 0 0  0.59375 0 0  0.625 0 0  0.65625 0 0  0.6875 0 0  0.71875 0 0  0.75 0 0  0.78125 0 0  0.8125 0 0  0.84375 0 0  0.875 0 0  0.90625 0 0  0.9375 0 0  0.96875 0 0  1 0 0  0 0.03125 0  0.03125 0.03125 0  0.0625 0.03125 0  0.09375 0.03125 0  0.125 0.03125 0  0.15625 0.03125 0  0.1875 0.03125 0  0.21875 0.03125 0  0.25 0.03125 0  0.28125 0.03125 0  0.3125 0.03125 0  0.34375 0.03125 0  0.375 0.03125 0  0.40625 0.03125 0  0.4375 0.03125 0  0.46875 0.03125 0  0.5 0.03125 0  0.53125 0.03125 0  0.5625 0.03125 0  0.59375 0.03125 0  0.625 0.03125 0  0.65625 0.03125 0  0.6875 0.03125 0  0.71875 0.03125 0  0.75 0.03125 0  0.78125 0.03125 0  0.8125 0.03125 0  0.84375 0.03125 0  0.875 0.03125 0  0.90625 0.03125 0  0.9375 0.03125 0  0.96875 0.03125 0  1 0.03125 0  0 0.0625 0  0.03125 0.0625 0  0.0625 0.0625 0  0.09375 0.0625 0  0.125 0.0625 0  0.15625 0.0625 0  0.1875 0.0625 0  0.21875 0.0625 0  0.25 0.0625 0  0.28125 0.0625 0  0.3125 0.0625 0  0.34375 0.0625 0  0.375 0.0625 0  0.40625 0.0625 0  0.4375 0.0625 0  0.46875 0.0625 0  0.5 0.0625 0  0.53125 0.0625 0  0.5625 0.0625 0  0.59375 0.0625 0  0.625 0.0625 0  0.65625 0.0625 0  0.6875 0.0625 0  0.71875 0.0625 0  0.75 0.0625 0  0.78125 0.0625 0  0.8125 0.0625 0  0.84375 0.0625 0  0.875 0.0625 0  0.90625 0.0625 0  0.9375 0.0625 0  0.96875 0.0625 0  1 0.0625 0  0 0.09375 0  0.03125 0.09375 0  0.0625 0.09375 0  0.09375 0.09375 0  0.125 0.09375 0  0.15625 0.09375 0  0.1875 0.09375 0  0.21875 0.09375 0  0.25 0.09375 0  0.28125 0.09375 0  0.3125 0.09375 0  0.34375 0.09375 0  0.375 0.09375 0  0.40625 0.09375 0  0.4375 0.09375 0  0.46875 0.09375 0  0.5 0.09375 0  0.53125 0.09375 0  0.5625 0.09375 0  0.59375 0.09375 0  0.625 0.09375 0  0.65625 0.09375 0  0.6875 0.09375 0  0.71875 0.09375 0  0.75 0.09375 0  0.78125 0.09375 0  0.8125 0.09375 0  0.84375 0.09375 0  0.875 0.09375 0  0.90625 0.09375 0  0.9375 0.09375 0  0.96875 0.09375 0  1 0.09375 0  0 0.125 0  0.03125 0.125 0  0.0625 0.125 0  0.09375 0.125 0  0.125 0.125 0  0.15625 0.125 0  0.1875 0.125 0  0.21875 0.125 0  0.25 0.125 0  0.28125 0.125 0  0.3125 0.125 0  0.34375 0.125 0  0.375 0.125 0  0.40625 0.125 0  0.4375 0.125 0  0.46875 0.125 0  0.5 0.125 0  0.53125 0.125 0  0.5625 0.125 0  0.59375 0.125 0  0.625 0.125 0  0.65625 0.125 0  0.6875 0.125 0  0.71875 0.125 0  0.75 0.125 0  0.78125 0.125 0  0.8125 0.125 0  0.84375 0.125 0  0.875 0.125 0  0.90625 0.125 0  0.9375 0.125 0  0.96875 0.125 0  1 0.125 0  0 0.15625 0  0.03125 0.15625 0  0.0625 0.15625 0  0.09375 0.15625 0  0.125 0.15625 0  0.15625 0.15625 0  0.1875 0.15625 0  0.21875 0.15625 0  0.25 0.15625 0  0.28125 0.15625 0  0.3125 0.15625 0  0.34375 0.15625 0  0.375 0.15625 0  0.40625 0.15625 0  0.4375 0.15625 0  0.46875 0.15625 0  0.5 0.15625 0  0.53125 0.15625 0  0.5625 0.15625 0  0.59375 0.15625 0  0.625 0.15625 0  0.65625 0.15625 0  0.6875 0.15625 0  0.71875 0.15625 0  0.75 0.15625 0  0.78125 0.15625 0  0.8125 0.15625 0  0.84375 0.15625 0  0.875 0.15625 0  0.90625 0.15625 0  0.9375 0.15625 0  0.96875 0.15625 0  1 0.15625 0  0 0.1875 0  0.03125 0.1875 0  0.0625 0.1875 0  0.09375 0.1875 0  0.125 0.1875 0  0.15625 0.1875 0  0.1875 0.1875 0  0.21875 0.1875 0  0.25 0.1875 0  0.28125 0.1875 0  0.3125 0.1875 0  0.34375 0.1875 0  0.375 0.1875 0  0.40625 0.1875 0  0.4375 0.1875 0  0.46875 0.1875 0  0.5 0.1875 0  0.53125 0.1875 0  0.5625 0.1875 0  0.59375 0.1875 0  0.625 0.1875 0  0.65625 0.1875 0  0.6875 0.1875 0  0.71875 0.1875 0  0.75 0.1875 0  0.78125 0.1875 0  0.8125 0.1875 0  0.84375 0.1875 0  0.875 0.1875 0  0.90625 0.1875 0  0.9375 0.1875 0  0.96875 0.1875 0  1 0.1875 0  0 0.21875 0  0.03125 0.21875 0  0.0625 0.21875 0  0.09375 0.21875 0  0.125 0.21875 0  0.15625 0.21875 0  0.1875 0.21875 0  0.21875 0.21875 0  0.25 0.21875 0  0.28125 0.21875 0  0.3125 0.21875 0  0.34375 0.21875 0  0.375 0.21875 0  0.40625 0.21875 0  0.4375 0.21875 0  0.46875 0.21875 0  0.5 0.21875 0  0.53125 0.21875 0  0.5625 0.21875 0  0.59375 0.21875 0  0.625 0.21875 0  0.65625 0.21875 0  0.6875 0.21875 0  0.71875 0.21875 0  0.75 0.21875 0  0.78125 0.21875 0  0.8125 0.21875 0  0.84375 0.21875 0  0.875 0.21875 0  0.90625 0.21875 0  0.9375 0.21875 0  0.96875 0.21875 0  1 0.21875 0  0 0.25 0  0.03125 0.25 0  0.0625 0.25 0  0.09375 0.25 0  0.125 0.25 0  0.15625 0.25 0  0.1875 0.25 0  0.21875 0.25 0  0.25 0.25 0  0.28125 0.25 0  0.3125 0.25 0  0.34375 0.25 0  0.375 0.25 0  0.40625 0.25 0  0.4375 0.25 0  0.46875 0.25 0  0.5 0.25 0  0.53125 0.25 0  0.5625 0.25 0  0.59375 0.25 0  0.625 0.25 0  0.65625 0.25 0  0.6875 0.25 0  0.71875 0.25 0  0.75 0.25 0  0.78125 0.25 0  0.8125 0.25 0  0.84375 0.25 0  0.875 0.25 0  0.90625 0.25 0  0.9375 0.25 0  0.96875 0.25 0  1 0.25 0  0 0.28125 0  0.03125 0.28125 0  0.0625 0.28125 0  0.09375 0.28125 0  0.125 0.28125 0  0.15625 0.28125 0  0.1875 0.28125 0  0.21875 0.28125 0  0.25 0.28125 0  0.28125 0.28125 0  0.3125 0.28125 0  0.34375 0.28125 0  0.375 0.28125 0  0.40625 0.28125 0  0.4375 0.28125 0  0.46875 0.28125 0  0.5 0.28125 0  0.53125 0.28125 0  0.5625 0.28125 0  0.59375 0.28125 0  0.625 0.28125 0  0.65625 0.28125 0  0.6875 0.28125 0  0.71875 0.28125 0  0.75 0.28125 0  0.78125 0.28125 0  0.8125 0.28125 0  0.84375 0.28125 0  0.875 0.28125 0  0.90625 0.28125 0  0.9375 0.28125 0  0.96875 0.28125 0  1 0.28125 0  0 0.3125 0  0.03125 0.3125 0  0.0625 0.3125 0  0.09375 0.3125 0  0.125 0.3125 0  0.15625 0.3125 0  0.1875 0.3125 0  0.21875 0.3125 0  0.25 0.3125 0  0.28125 0.3125 0  0.3125 0.3125 0  0.34375 0.3125 0  0.375 0.3125 0  0.40625 0.3125 0  0.4375 0.3125 0  0.46875 0.3125 0  0.5 0.3125 0  0.53125 0.3125 0  0.5625 0.3125 0  0.59375 0.3125 0  0.625 0.3125 0  0.65625 0.3125 0  0.6875 0.3125 0  0.71875 0.3125 0  0.75 0.3125 0  0.78125 0.3125 0  0.8125 0.3125 0  0.84375 0.3125 0  0.875 0.3125 0  0.90625 0.3125 0  0.9375 0.3125 0  0.96875 0.3125 0  1 0.3125 0  0 0.34375 0  0.03125 0.34375 0  0.0625 0.34375 0  0.09375 0.34375 0  0.125 0.34375 0  0.15625 0.34375 0  0.1875 0.34375 0  0.21875 0.34375 0  0.25 0.34375 0  0.28125 0.34375 0  0.3125 0.34375 0  0.34375 0.34375 0  0.375 0.34375 0  0.40625 0.34375 0  0.4375 0.34375 0  0.46875 0.34375 0  0.5 0.34375 0  0.53125 0.34375 0  0.5625 0.34375 0  0.59375 0.34375 0  0.625 0.34375 0  0.65625 0.34375 0  0.6875 0.34375 0  0.71875 0.34375 0  0.75 0.34375 0  0.78125 0.34375 0  0.8125 0.34375 0  0.84375 0.34375 0  0.875 0.34375 0  0.90625 0.34375 0  0.9375 0.34375 0  0.96875 0.34375 0  1 0.34375 0  0 0.375 0  0.03125 0.375 0  0.0625 0.375 0  0.09375 0.375 0  0.125 0.375 0  0.15625 0.375 0  0.1875 0.375 0  0.21875 0.375 0  0.25 0.375 0  0.28125 0.375 0  0.3125 0.375 0  0.34375 0.375 0  0.375 0.375 0  0.40625 0.375 0  0.4375 0.375 0  0.46875 0.375 0  0.5 0.375 0  0.53125 0.375 0  0.5625 0.375 0  0.59375 0.375 0  0.625 0.375 0  0.65625 0.375 0  0.6875 0.375 0  0.71875 0.375 0  0.75 0.375 0  0.78125 0.375 0  0.8125 0.375 0  0.84375 0.375 0  0.875 0.375 0  0.90625 0.375 0  0.9375 0.375 0  0.96875 0.375 0  1 0.375 0  0 0.40625 0  0.03125 0.40625 0  0.0625 0.40625 0  0.09375 0.40625 0  0.125 0.40625 0  0.15625 0.40625 0  0.1875 0.40625 0  0.21875 0.40625 0  0.25 0.40625 0  0.28125 0.40625 0  0.3125 0.40625 0  0.34375 0.40625 0  0.375 0.40625 0  0.40625 0.40625 0  0.4375 0.40625 0  0.46875 0.40625 0  0.5 0.40625 0  0.53125 0.40625 0  0.5625 0.40625 0  0.59375 0.40625 0  0.625 0.40625 0  0.65625 0.40625 0  0.6875 0.40625 0  0.71875 0.40625 0  0.75 0.40625 0  0.78125 0.40625 0  0.8125 0.40625 0  0.84375 0.40625 0  0.875 0.40625 0  0.90625 0.40625 0  0.9375 0.40625 0  0.96875 0.40625 0  1 0.40625 0  0 0.4375 0  0.03125 0.4375 0  0.0625 0.4375 0  0.09375 0.4375 0  0.125 0.4375 0  0.15625 0.4375 0  0.1875 0.4375 0  0.21875 0.4375 0  0.25 0.4375 0  0.28125 0.4375 0  0.3125 0.4375 0  0.34375 0.4375 0  0.375 0.4375 0  0.40625 0.4375 0  0.4375 0.4375 0  0.46875 0.4375 0  0.5 0.4375 0  0.53125 0.4375 0  0.5625 0.4375 0  0.59375 0.4375 0  0.625 0.4375 0  0.65625 0.4375 0  0.6875 0.4375 0  0.71875 0.4375 0  0.75 0.4375 0  0.78125 0.4375 0  0.8125 0.4375 0  0.84375 0.4375 0  0.875 0.4375 0  0.90625 0.4375 0  0.9375 0.4375 0  0.96875 0.4375 0  1 0.4375 0  0 0.46875 0  0.03125 0.46875 0  0.0625 0.46875 0  0.09375 0.46875 0  0.125 0.46875 0  0.15625 0.46875 0  0.1875 0.46875 0  0.21875 0.46875 0  0.25 0.46875 0  0.28125 0.46875 0  0.3125 0.46875 0  0.34375 0.46875 0  0.375 0.46875 0  0.40625 0.46875 0  0.4375 0.46875 0  0.46875 0.46875 0  0.5 0.46875 0  0.53125 0.46875 0  0.5625 0.46875 0  0.59375 0.46875 0  0.625 0.46875 0  0.65625 0.46875 0  0.6875 0.46875 0  0.71875 0.46875 0  0.75 0.46875 0  0.78125 0.46875 0  0.8125 0.46875 0  0.84375 0.46875 0  0.875 0.46875 0  0.90625 0.46875 0  0.9375 0.46875 0  0.96875 0.46875 0  1 0.46875 0  0 0.5 0  0.03125 0.5 0  0.0625 0.5 0  0.09375 0.5 0  0.125 0.5 0  0.15625 0.5 0  0.1875 0.5 0  0.21875 0.5 0  0.25 0.5 0  0.28125 0.5 0  0.3125 0.5 0  0.34375 0.5 0  0.375 0.5 0  0.40625 0.5 0  0.4375 0.5 0  0.46875 0.5 0  0.5 0.5 0  0.53125 0.5 0  0.5625 0.5 0  0.59375 0.5 0  0.625 0.5 0  0.65625 0.5 0  0.6875 0.5 0  0.71875 0.5 0  0.75 0.5 0  0.78125 0.5 0  0.8125 0.5 0  0.84375 0.5 0  0.875 0.5 0  0.90625 0.5 0  0.9375 0.5 0  0.96875 0.5 0  1 0.5 0  0 0.53125 0  0.03125 0.53125 0  0.0625 0.53125 0  0.09375 0.53125 0  0.125 0.53125 0  0.15625 0.53125 0  0.1875 0.53125 0  0.21875 0.53125 0  0.25 0.53125 0  0.28125 0.53125 0  0.3125 0.53125 0  0.34375 0.53125 0  0.375 0.53125 0  0.40625 0.53125 0  0.4375 0.53125 0  0.46875 0.53125 0  0.5 0.53125 0  0.53125 0.53125 0  0.5625 0.53125 0  0.59375 0.53125 0  0.625 0.53125 0  0.65625 0.53125 0  0.6875 0.53125 0  0.71875 0.53125 0  0.75 0.53125 0  0.78125 0.531
[...]
<PointData  Scalars="theta"> 
<DataArray  type="Float64"  Name="theta"  format="ascii">-3.0895899455364183e-04  -8.5581078514273133e-05  -2.0433857258450376e-05  -9.2543849934710175e-04  -4.5720314887250210e-04  -1.2114489420093019e-03  -4.3916355899760451e-04  -3.8961505658573751e-05  -9.5539499235074295e-04  -1.3013111402712461e-03  -1.3665316070103828e-03  -1.2928053322668867e-03  -1.1239273913577002e-03  -8.7640508568930127e-04  -5.2235294419782628e-04  -1.0492855896244065e-04  -1.3584036755516499e-04  -1.0305978376429366e-03  -2.5911546176443678e-04  -9.7171569406135304e-04  -2.0562474754690788e-03  -6.3530262373833737e-04  -1.7743929995827198e-03  -3.7638062410613813e-04  -1.7743929995827066e-03  -7.1764990967746855e-04  -2.0562474754690350e-03  -1.2919223285472790e-03  -6.3530262373832393e-04  -1.9005502638638121e-03  -1.4428310361341912e-03  -1.1814644070189740e-03  -1.0391074203587561e-03  -9.8975498257889457e-04  -2.3795881727043481e-04  -8.0277188028491679e-05  -1.0372588674558415e-05  -8.6808441434285243e-04  -3.5213579302068168e-04  -1.1301664112425389e-03  -4.0836274939785384e-04  -3.0007975067966116e-05  -8.9324730726345969e-04  -1.2154211488261068e-03  -1.2818407604497939e-03  -1.2089599266803140e-03  -1.0451005559431940e-03  -8.1493826854676921e-04  -4.8847553561009180e-04  -9.8425607664919543e-05  -1.2687454251444045e-04  -9.6355826722622812e-04  -1.9956955422847439e-04  -9.0356425147311093e-04  -1.9182829332642030e-03  -4.8930720133908096e-04  -1.6644249282297230e-03  -1.9105748609025096e-04  -1.6644249282297104e-03  -5.5273070773615329e-04  -1.9182829332641616e-03  -1.2013131401390296e-03  -4.8930720133907055e-04  -1.7769209793931655e-03  -1.3476003556956021e-03  -1.1082431069785418e-03  -1.8680849092855809e-04  -9.2597375191115700e-04  -1.6203747485395202e-04  -7.5269244844088120e-05  0.0000000000000000e+00  -8.1393058144137718e-04  -2.3978600734898879e-04  -1.0555724264611802e-03  -3.7610761565814164e-04  -2.0433857258449695e-05  -8.3364808205285928e-04  -1.1370976667358864e-03  -1.2018755068399279e-03  -1.1241693201910082e-03  -9.6255174792115531e-04  -7.5056916808316141e-04  -4.5421622229000651e-04  -9.2285509049340578e-05  -1.1869856502060434e-04  -8.9926775584715053e-04  -1.3589640004034700e-04  -8.3219489710211858e-04  -1.7916711648495590e-03  -3.3319254248407242e-04  -1.5605928723246123e-03  0.0000000000000000e+00  -1.5605928723246005e-03  -3.7638062410613526e-04  -1.7916711648495204e-03  -1.1064256508771068e-03  -3.3319254248406532e-04  -1.6583613008235906e-03  -1.2607590559321072e-03  -8.5581078514275247e-05  -1.4387905301690933e-04  -8.6773521440861457e-04  -8.2253098632617549e-05  -7.0387627941192495e-05  -8.5894714167251095e-04  -7.6114278886582891e-04  -1.2171963387466286e-04  -9.8754982530872056e-04  -3.4140078297793125e-04  -1.0372588674558069e-05  -7.7746669806079947e-04  -1.0655806232218871e-03  -1.1239273913577139e-03  -1.0353751492674619e-03  -8.7372844025511605e-04  -6.8130739978314195e-04  -4.1833928440006876e-04  -8.6300295542804771e-05  -1.1123309333073974e-04  -8.3866411722482450e-04  -6.8983425015794667e-05  -7.5540078858478182e-04  -1.6762133052202494e-03  -1.6913444920872017e-04  -1.4593799989942298e-03  -2.8543585938944462e-03  -1.4593799989942187e-03  -1.9105748609024950e-04  -1.6762133052202134e-03  -1.0043258040795663e-03  -1.6913444920871657e-04  -1.5466006729940238e-03  0.0000000000000000e+00  -8.0277188028493644e-05  -9.7974089393553643e-05  -8.1395729260885818e-04  0.0000000000000000e+00  -6.5450979892927222e-05  -8.0307331263354954e-04  -7.0775991217271168e-04  0.0000000000000000e+00  -9.2543849934708636e-04  -3.0344296700022714e-04  0.0000000000000000e+00  -7.2530233634989915e-04  -9.9954122494067639e-04  -1.0451005559432066e-03  -9.3983177133295087e-04  -7.7658506799801726e-04  -6.0555789306075030e-04  -3.7973535578292208e-04  -8.0247609893104409e-05  -1.0433941828406974e-04  -7.8239369628719678e-04  0.0000000000000000e+00  -6.7141338857824103e-04  -1.5707889222538343e-03  0.0000000000000000e+00  -1.3570261388850151e-03  -2.6686848354596639e-03  -1.3570261388850050e-03  0.0000000000000000e+00  -1.5707889222538005e-03  -8.9266228145848262e-04  0.0000000000000000e+00  -3.7374083588165118e-04  -1.1723633625470293e-04  -7.5269244844089963e-05  -4.9733386956272410e-05  -7.6318007960446920e-04  -7.4300632425915842e-04  -6.0281237763032848e-05  -7.4949067450962286e-04  -6.5185645218180928e-04  -1.8184656885504716e-03  -8.6808441434283780e-04  -2.6170173733939379e-04  -1.6879222026340955e-04  -6.7743045580083427e-04  -9.3718670321533309e-04  -9.6255174792116691e-04  -8.3533886093279546e-04  -6.6975901104592169e-04  -5.2225811736629415e-04  -3.3751540353410759e-04  -7.3909134130535400e-05  -9.7830397583507990e-05  -7.3075363435179278e-04  -1.9005502638638786e-03  -5.7905461444991626e-04  -1.4734392210751614e-03  -2.8543585938944674e-03  -1.2498394288764174e-03  -2.4906249104743395e-03  -1.2498394288764081e-03  -2.5268330412055065e-03  -1.4734392210751298e-03  -7.6986879025229464e-04  -5.8453936203979671e-04  -3.3218736975305690e-04  -1.0961020573834230e-04  -7.0387627941194229e-05  0.0000000000000000e+00  -7.1368373107237669e-04  -6.9467435326535831e-04  -5.4718545741664120e-05  -6.9898084393530736e-04  -5.9170379407144202e-04  -1.7001759404788434e-03  -8.1393058144136352e-04  -2.1595861849927619e-04  -1.5781242045903433e-04  -6.3377586560094167e-04  -8.7640508568932285e-04  -8.7372844025512657e-04  -7.2043070674648131e-04  -5.5269113695389322e-04  -4.3097207788188460e-04  -2.9108721272032778e-04  -6.7088873532198350e-05  -9.1485568118965265e-05  -6.8366282204546124e-04  -1.7769209793932273e-03  -4.7784105617173887e-04  -1.3815214535744195e-03  -2.6686848354596834e-03  -1.1345055028158203e-03  -2.3227762013032240e-03  -1.1345055028158118e-03  -2.3624645597184997e-03  -1.3815214535743896e-03  -5.3222727170697780e-04  -5.4831251359723388e-04  -2.8649209650824932e-04  -1.0229679624462308e-04  -6.5450979892928821e-05  -1.2288439660802356e-03  -6.6362940332857626e-04  -6.4832430788416481e-04  -4.8634797275381506e-05  -6.5208251418950988e-04  -5.2591664638899221e-04  -1.5867368425377889e-03  -7.6114278886581612e-04  -1.6633034915098592e-04  -1.4728286396164898e-04  -5.9391493062214095e-04  -8.1493826854678927e-04  -7.7658506799802669e-04  -5.9450587426424179e-04  -4.2568020864842011e-04  -3.3193274103418113e-04  -2.4020777607739718e-04  -5.9629760247589208e-05  -8.5069212510615165e-05  -6.4066427827614637e-04  -1.6583613008236484e-03  -3.6803101568269939e-04  -1.2919223285473068e-03  -2.4906249104743581e-03  -1.0083682669080772e-03  -2.1669288341549311e-03  -1.0083682669080694e-03  -2.2048362565578877e-03  -6.2984693705347315e-06  -4.9635930131690126e-04  -5.1410705644522358e-04  -2.3641584500696210e-04  -9.5402789391246481e-05  -6.0281237763034326e-05  -1.1489086425367711e-03  -6.1121165663269902e-04  -6.0463230201649322e-04  -4.1944656249380226e-05  -6.0904333636952466e-04  -4.5357221957167281e-04  -1.4798031450170748e-03  -7.0775991217269987e-04  -1.1326224460668709e-04  -1.3735714672698132e-04  -5.5710703097216216e-04  -7.5056916808317984e-04  -6.6975901104592982e-04  -4.5788572980251258e-04  -2.8986589736787775e-04  -2.2602878849159618e-04  -1.8500694041006393e-04  -5.1427166060876063e-05  -7.8349895357647851e-05  -6.0095908608740595e-04  -1.5466006729940775e-03  -2.5060982035973983e-04  -1.2013131401390556e-03  -2.3227762013032414e-03  -8.6965840710211541e-04  -2.0239057758961675e-03  -8.6965840710210890e-04  -1.1634268917192065e-04  0.0000000000000000e+00  -4.6305592485454405e-04  -4.8076443819736647e-04  -1.8208641228627405e-04  -8.9001710571476059e-05  -5.4718545741665455e-05  -1.0722511879033723e-03  -5.5480965939628374e-04  -5.6406431603953479e-04  -3.4613106160987047e-05  -5.6979571023237942e-04  -3.7429185959631780e-04  -1.3805153083674309e-03  -6.5185645218179844e-04  -5.7493925929062766e-05  -1.2814112769579300e-04  -5.2235294419784525e-04  -6.8130739978315865e-04  -5.5269113695390005e-04  -3.1179616826107172e-04  -1.4714107503786947e-04  -1.1473622537235481e-04  -1.2598002376366224e-04  -4.2438158220693853e-05  -7.1119845777472561e-05  -5.6346937035136560e-04  -1.4428310361342415e-03  -1.2721399349706970e-04  -1.1064256508771307e-03  -2.1669288341549472e-03  -7.1764990967747397e-04  -1.8934823848404825e-03  -2.2249292708651847e-04  -8.9606611885207306e-05  -1.1723633625470474e-04  -4.3249300397146616e-04  -4.4704594398293883e-04  -1.2399129727793155e-04  -8.3127361291723148e-05  -4.8634797275382692e-05  -9.9998981404499413e-04  -4.9312449637374262e-04  -5.2683457306734629e-04  -2.6658857483737859e-05  -5.3395876693818100e-04  -2.8827789380971611e-04  -1.2893976314674641e-03  -5.9170379407143215e-04  0.0000000000000000e+00  -1.1968347293440514e-04  -4.8847553561010958e-04  -6.0555789306076515e-04  -4.2568020864842536e-04  -1.5827326983690432e-04  0.0000000000000000e+00  0.0000000000000000e+00  -6.3949696387898756e-05  -3.2685677113629295e-05  -6.3212558644629326e-05  -5.2692533954211765e-04  -1.3476003556956489e-03  0.0000000000000000e+00  -1.0043258040795878e-03  -2.0239057758961823e-03  -5.5273070773615752e-04  -1.8392174136446955e-04  -1.9188708224114273e-04  -6.1017403291242153e-05  -1.0961020573834401e-04  -4.0462253447747908e-04  -4.1173536109498506e-04  -6.2940183521004590e-05  -7.7770514901788330e-05  -4.1944656249381256e-05  -9.3289519700587330e-04  -4.2529091611975128e-04  -4.9288459754815871e-04  -1.8153283827457353e-05  -5.0086665273573264e-04  -1.9630212700231739e-04  -1.2063069987325033e-03  -5.2591664638898354e-04  -1.5496428970164286e-04  -1.1197089827834704e-04  -4.5421622229002305e-04  -5.2225811736630705e-04  -2.8986589736788133e-04  0.0000000000000000e+00  -1.7141350366553607e-03  -9.5539499235070804e-04  0.0000000000000000e+00  -2.2257231919945932e-05  -5.4517119254754150e-05  -4.8996934279784028e-04  -1.2607590559321512e-03  -2.5268330412055603e-03  -8.9266228145850170e-04  -1.8934823848404966e-03  -3.7400513878912778e-05  -1.6347284973593831e-04  -1.5834693957309198e-04  -3.0973517056744822e-05  -1.0229679624462469e-04  -3.7917405432358233e-04  -3.7374083588165253e-04  0.0000000000000000e+00  -7.2879187216363402e-05  -3.4613106160987894e-05  -8.7132163630205541e-04  -3.5095387458739511e-04  -4.6188493037672030e-04  -9.2149291175487199e-06  -4.6962101743803521e-04  -9.9646444309672144e-05  -1.1304370777544376e-03  -4.5357221957166528e-04  -1.4488398579251725e-04  -1.0492855896244540e-04  -4.1833928440008404e-04  -4.3097207788189522e-04  -1.4714107503787131e-04  -2.1982566642315114e-03  -1.6026319145874704e-03  -8.9324730726342706e-04  -1.6879222026340188e-04  -1.1298166020239642e-05  -4.4988015282253717e-05  -4.5126839197995382e-04  -1.1814644070190152e-03  -2.3624645597185500e-03  -7.6986879025231101e-04  -2.4296680479001356e-05  -3.3242228678438861e-05  -1.4098573187127020e-04  -1.2195809516289684e-04  0.0000000000000000e+00  -9.5402789391247972e-05  -3.5567472837331842e-04  -3.3218736975305810e-04  -6.0995434539858680e-04  -6.8362496910528005e-05  -2.6658857483738509e-05  -8.1517242033552503e-04  -2.7030308353360950e-04  -4.3325959484367548e-04  0.0000000000000000e+00  -4.3916355899761606e-04  0.0000000000000000e+00  -1.0603781983202832e-03  -3.7429185959631157e-04  -1.3521703999996664e-04  -9.8425607664924002e-05  -3.7973535578293596e-04  -3.3193274103418931e-04  0.0000000000000000e+00  -2.0552618149770291e-03  -1.4957011467804956e-03  -8.3364808205282882e-04  -1.5781242045902717e-04  0.0000000000000000e+00  -3.4649565465396004e-05  -4.0962579841824379e-04  -1.1082431069785806e-03  -2.2048362565579350e-03  -7.6630833582723277e-05  -2.0954459929631618e-05  -2.8669469865071411e-05  -1.1634268917192132e-04  -8.3047066735648494e-05  -9.4097805556148022e-05  -8.9001710571477442e-05  -3.3348662144573680e-04  -2.8649209650825029e-04  -5.7027729990541246e-04  -6.4097829588718216e-05  -1.8153283827457797e-05  -7.6390266298574671e-04  -1.8406222388996882e-04  -4.0623150020856246e-04  -1.5496428970164806e-04  -4.0836274939786457e-04  -1.8184656885504810e-03  -9.9422847507283372e-04  -2.8827789380971133e-04  -1.2610446526963078e-04  -9.2285509049344779e-05  -3.3751540353411989e-04  -2.2602878849160179e-04  -2.3645693094137190e-03  -1.9181306859139837e-03  -1.3949025456996729e-03  -7.7746669806077107e-04  -1.4728286396164229e-04  -1.7893394301528919e-04  -2.3594536891728980e-05  -3.6408254998027844e-04  -1.0391074203587925e-03  -2.0401165281126320e-05  -5.9020720701582838e-05  -1.7291808085832279e-05  -2.3658303411023868e-05  -8.9606611885207821e-05  -4.2156165279134909e-05  -8.7976818075651572e-05  -8.3127361291724435e-05  -3.1185821356797497e-04  -2.3641584500696294e-04  -5.3222727170697194e-04  -5.9940739279025996e-05  -9.2149291175489435e-06  -7.1655976737597133e-04  -9.3433252214071322e-05  -3.7988519419719668e-04  -1.4488398579252210e-04  -3.7610761565815150e-04  -1.7001759404788523e-03  -9.2974739067629110e-04  -1.9630212700231413e-04  -1.1764344828190346e-04  -8.6300295542808702e-05  -2.9108721272033840e-04  -1.1473622537235762e-04  -2.2107559547436019e-03  -1.7888636259491607e-03  -1.3013111402712140e-03  -7.2530233634987269e-04  -1.3735714672697509e-04  -1.6729443220460494e-04  -1.1977005762991152e-05  -3.1399981619848919e-04  -2.6594953954264648e-04  0.0000000000000000e+00  -4.0190015466735470e-05  -1.3318072213811482e-05  -1.8221518057584489e-05  -6.1017403291242499e-05  0.0000000000000000e+00  -8.2106830949839538e-05  -7.7770514901789550e-05  -2.8998598564416859e-04  -1.8208641228627473e-04  -4.9635930131689573e-04  -5.5736785512881096e-05  0.0000000000000000e+00  -6.7185851797527368e-04  0.0000000000000000e+00  -3.5324188261884239e-04  -1.3521703999997117e-04  -3.4140078297794019e-04  -1.5867368425377972e-03  -8.6453940205936291e-04  -9.9646444309670491e-05  -1.0987866824290123e-04  -8.0247609893108055e-05  -2.4020777607740597e-04  0.0000000000000000e+00  -2.0632499494514104e-03  -1.6688392834683368e-03  -1.2154211488260766e-03  -6.7743045580080955e-04  -1.2814112769578718e-04  -1.5613221714908169e-04  0.0000000000000000e+00  -4.2754082183913508e-05  -2.4802661316013306e-04  -3.0478911157732239e-04  -2.0401165281126272e-05  -9.0689087137126201e-06  -1.2407898172989957e-05  -3.0973517056744998e-05  -4.6273781992658443e-04  -7.6573470414054620e-05  -7.2879187216364540e-05  -2.6708101509191558e-04  -1.2399129727793201e-04  -4.6305592485453885e-04  -5.1334333346050124e-05  -7.4300632425917175e-04  -6.2828486575521839e-04  -1.2288439660802239e-03  -3.2534055179682408e-04  -1.2610446526963500e-04  -3.0344296700023511e-04  -1.4798031450170823e-03  -7.9625248294689656e-04  0.0000000000000000e+00  -1.0279792926404427e-04  -7.3909134130538761e-05  -1.8500694041007068e-04  -2.1982566642315387e-03  -1.9242029820592658e-03  -1.5586914584443145e-03  -1.1370976667358585e-03  -6.3377586560091847e-04  -1.1968347293439972e-04  -1.4561012247385155e-04  -1.6642162480303657e-05  -4.0104396369475471e-05  -2.3138519302588704e-04  -2.8496282205728443e-04  0.0000000000000000e+00  -4.6035390491708564e-06  -6.2984693705347908e-06  0.0000000000000000e+00  -4.3263709243583816e-04  -7.1435750408682373e-05  -6.8362496910529075e-05  -2.4243504750991033e-04  -6.2940183521004834e-05  -4.3249300397146139e-04  -4.6597252670154122e-05  -6.9467435326537078e-04  -5.8422000170160282e-04  -1.1489086425367598e-03  -2.9531845273472209e-04  -1.1764344828190740e-04  -2.6170173733940062e-04  -1.3805153083674380e-03  -7.2277510427568438e-04  -8.5894714167248851e-04  -9.6332518072559270e-05  -6.7088873532201399e-05  -1.2598002376366683e-04  -2.0552618149770542e-03  -1.7950980048149761e-03  -1.4582471452549697e-03  -1.0655806232218608e-03  -5.9391493062211926e-04  -1.1197089827834196e-04  0.0000000000000000e+00  -1.4791844108481844e-05  -3.7602558133788234e-05  -2.1611315574402465e-04  -2.6594953954264588e-04  -6.8775903610092043e-05  0.0000000000000000e+00  0.0000000000000000e+00  -6.2980422862516825e-04  -4.0377069082804946e-04  -6.6720801153579605e-05  -6.4097829588719205e-05  -2.1548049620613672e-04  0.0000000000000000e+00  -4.0462253447747464e-04  -4.1416450428014485e-05  -6.4832430788417631e-04  -5.3807452365276897e-04  -1.0722511879033619e-03  -2.6248418860109384e-04  -1.0987866824290493e-04  -2.1595861849928183e-04  -1.2893976314674710e-03  -6.4241511165335986e-04  -8.0307331263352840e-04  -9.0362306725068440e-05  -5.9629760247591925e-05  -6.3949696387901087e-05  -1.9181306859140073e-03  -1.6766167688481437e-03  -1.3665316070103661e-03  -9.9954122494065188e-04  -5.5710703097214178e-04  -8.6996311531709709e-05  -4.1870840977625982e-05  -1.2757096794536277e-05  -3.5163829224547252e-05  -2.0218651402010326e-04  -2.4802661316013246e-04  -6.4302085730184001e-05  -9.4097805556148917e-05  -4.6273781992658703e-04  -5.8883596400099384e-04  -3.7655969290877213e-04  -6.2421217030623715e-05  -5.9940739279026937e-05  -1.8583927245826863e-04  -9.4031308278394422e-04  -3.7917405432357811e-04  -3.5719256038760514e-05  -6.0463230201650406e-04  -4.8842154752458855e-04  -9.9998981404498437e-04  -2.2637719654572169e-04  -1.0279792926404772e-04  -1.6633034915099025e-04  -1.2063069987325095e-03  -5.5404530371810879e-04  -7.4949067450960324e-04  -8.4725222153419263e-05  -5.1427166060878401e-05  0.0000000000000000e+00  -1.7888636259491830e-03  -1.5685731795179166e-03  -1.2818407604497783e-03  -9.3718670321530999e-04  -1.0527270578401676e-05  -8.1604711927666857e-05  -3.9147176042964165e-05  -1.0527270578401659e-05  -3.2697608185589566e-05  -1.8947012021848080e-04  -2.3138519302588647e-04  -6.0011723522784442e-05  -8.7976818075652399e-05  -4.3263709243584054e-04  -5.4954766506605469e-04  -3.5129430716860678e-04  -5.8495273793583537e-05  -5.5736785512881977e-05  -1.5335623275190613e-04  -8.7914646392976518e-04  -3.5567472837331446e-04  -2.9475850127615803e-05  -5.6406431603954477e-04  -4.3411758530525698e-04  -9.3289519700586441e-04  -1.8680849092855478e-04  -9.6332518072562510e-05  -1.1326224460669003e-04  -1.1304370777544437e-03  -4.5720314887249966e-04  -6.9898084393528893e-04  -7.9230334069681544e-05  -4.2438158220695784e-05  -1.7141350366554032e-03  -1.6688392834683574e-03  -1.4699187546464857e-03  -1.2018755068399134e-03  -2.9688854468921377e-05  -8.1080560853760091e-06  -7.6513953631943653e-05  -3.6535199110739847e-05  -8.1080560853759956e-06  -3.0114939402626265e-05  -1.7772770255545652e-04  -2.1611315574402410e-04  -5.5967401037262184e-05  -8.2106830949840297e-05  -4.0377069082805168e-04  -5.1251243514387006e-04  -3.2810794988348541e-04  -5.4870027050692512e-05  -5.1334333346050931e-05  -1.1811427538924502e-04  -8.2048807484670823e-04  -3.3348662144573306e-04  -2.2702166171084770e-05  -5.2683457306735562e-04  -3.7440092089490807e-04  -8.7132163630204706e-04  -1.4387905301690681e-04  -9.0362306725071462e-05  -5.7493925929064270e-05  -1.0603781983202889e-03  -3.5213579302067978e-04  -6.5208251418949275e-04  -7.3673501349373309e-05  -3.2685677113630779e-05  -1.6026319145875101e-03  -1.5586914584443338e-03  -1.3788204858119679e-03  -3.5327383337348804e-06  -2.7775662104676601e-05  -5.5211609686033768e-06  -7.1551610644037309e-05  -3.4073011414689124e-05  -5.5211609686033674e-06  -2.7335963068438869e-05  -1.6664049012872815e-04  -2.0218651402010275e-04  -5.2212251448207437e-05  -7.6573470414055338e-05  -3.7655969290877419e-04  -4.7812525931387911e-04  -3.0696420299280595e-04  -5.1447062386072861e-05  -4.6597252670154840e-05  -8.0429627058225723e-05  -7.6519357278253153e-04  -3.1185821356797150e-04  -1.5458984551502212e-05  -4.9288459754816749e-04  -3.0895899455364475e-04  -8.1517242033551734e-04  -9.7974089393551908e-05  -8.4725222153422095e-05  0.0000000000000000e+00  -9.9422847507283892e-04  -2.3978600734898752e-04  -6.0904333636950861e-04  -6.7854291241201299e-05  -2.2257231919946942e-05  -1.4957011467805327e-03  -1.4582471452549879e-03  -8.7347132413823740e-06  -2.7208990527560925e-06  -2.6028729283090144e-05  -2.8026393161607312e-06  -6.6533326474392654e-05  -3.1786872475942598e-05  -2