<?xml version="1.0"?>
<VTKFile type="UnstructuredGrid"  version="0.1"  >
<UnstructuredGrid>
<Piece  NumberOfPoints="1089" NumberOfCells="2048">
<Points>
<DataArray  type="Float64"  NumberOfComponents="3"  format="ascii">0 0 0  0.03125 0 0  0.0625 0 0  0.09375 0 0  0.125 0 0  0.15625 0 0  0.1875 0 0  0.21875 0 0  0.25 0 0  0.28125 0 0  0.3125 0 0  0.34375 0 0  0.375 0 0  0.40625 0 0  0.4375 0 0  0.46875 0 0  0.5 0 0  0.53125 0 0  0.5625 0 0  0.59375 0 0  0.625 0 0  0.65625 0 0  0.6875 0 0  0.71875 0 0  0.75 0 0  0.78125 0 0  0.8125 0 0  0.84375 0 0  0.875 0 0  0.90625 0 0  0.9375 0 0  0.96875 0 0  1 0 0  0 0.03125 0  0.03125 0.03125 0  0.0625 0.03125 0  0.09375 0.03125 0  0.125 0.03125 0  0.15625 0.03125 0  0.1875 0.03125 0  0.21875 0.03125 0  0.25 0.03125 0  0.28125 0.03125 0  0.3125 0.03125 0  0.34375 0.03125 0  0.375 0.03125 0  0.40625 0.03125 0  0.4375 0.03125 0  0.46875 0.03125 0  0.5 0.03125 0  0.53125 0.03125 0  0.5625 0.03125 0  0.59375 0.03125 0  0.625 0.03125 0  0.65625 0.03125 0  0.6875 0.03125 0  0.71875 0.03125 0  0.75 0.03125 0  0.78125 0.03125 0  0.8125 0.03125 0  0.84375 0.03125 0  0.875 0.03125 0  0.90625 0.03125 0  0.9375 0.03125 0  0.96875 0.03125 0  1 0.03125 0  0 0.0625 0  0.03125 0.0625 0  0.0625 0.0625 0  0.09375 0.0625 0  0.125 0.0625 0  0.15625 0.0625 0  0.1875 0.0625 0  0.21875 0.0625 0  0.25 0.0625 0  0.28125 0.0625 0  0.3125 0.0625 0  0.34375 0.0625 0  0.375 0.0625 0  0.40625 0.0625 0  0.4375 0.0625 0  0.46875 0.0625 0  0.5 0.0625 0  0.53125 0.0625 0  0.5625 0.0625 0  0.59375 0.0625 0  0.625 0.0625 0  0.65625 0.0625 0  0.6875 0.0625 0  0.71875 0.0625 0  0.75 0.0625 0  0.78125 0.0625 0  0.8125 0.0625 0  0.84375 0.0625 0  0.875 0.0625 0  0.90625 0.0625 0  0.9375 0.0625 0  0.96875 0.0625 0  1 0.0625 0  0 0.09375 0  0.03125 0.09375 0  0.0625 0.09375 0  0.09375 0.09375 0  0.125 0.09375 0  0.15625 0.09375 0  0.1875 0.09375 0  0.21875 0.09375 0  0.25 0.09375 0  0.28125 0.09375 0  0.3125 0.09375 0  0.34375 0.09375 0  0.375 0.09375 0  0.40625 0.09375 0  0.4375 0.09375 0  0.46875 0.09375 0  0.5 0.09375 0  0.53125 0.09375 0  0.5625 0.09375 0  0.59375 0.09375 0  0.625 0.09375 0  0.65625 0.09375 0  0.6875 0.09375 0  0.71875 0.09375 0  0.75 0.09375 0  0.78125 0.09375 0  0.8125 0.09375 0  0.84375 0.09375 0  0.875 0.09375 0  0.90625 0.09375 0  0.9375 0.09375 0  0.96875 0.09375 0  1 0.09375 0  0 0.125 0  0.03125 0.125 0  0.0625 0.125 0  0.09375 0.125 0  0.125 0.125 0  0.15625 0.125 0  0.1875 0.125 0  0.21875 0.125 0  0.25 0.125 0  0.28125 0.125 0  0.3125 0.125 0  0.34375 0.125 0  0.375 0.125 0  0.40625 0.125 0  0.4375 0.125 0  0.46875 0.125 0  0.5 0.125 0  0.53125 0.125 0  0.5625 0.125 0  0.59375 0.125 0  0.625 0.125 0  0.65625 0.125 0  0.6875 0.125 0  0.71875 0.125 0  0.75 0.125 0  0.78125 0.125 0  0.8125 0.125 0  0.84375 0.125 0  0.875 0.125 0  0.90625 0.125 0  0.9375 0.125 0  0.96875 0.125 0  1 0.125 0  0 0.15625 0  0.03125 0.15625 0  0.0625 0.15625 0  0.09375 0.15625 0  0.125 0.15625 0  0.15625 0.15625 0  0.1875 0.15625 0  0.21875 0.15625 0  0.25 0.15625 0  0.28125 0.15625 0  0.3125 0.15625 0  0.34375 0.15625 0  0.375 0.15625 0  0.40625 0.15625 0  0.4375 0.15625 0  0.46875 0.15625 0  0.5 0.15625 0  0.53125 0.15625 0  0.5625 0.15625 0  0.59375 0.15625 0  0.625 0.15625 0  0.65625 0.15625 0  0.6875 0.15625 0  0.71875 0.15625 0  0.75 0.15625 0  0.78125 0.15625 0  0.8125 0.15625 0  0.84375 0.15625 0  0.875 0.15625 0  0.90625 0.15625 0  0.9375 0.15625 0  0.96875 0.15625 0  1 0.15625 0  0 0.1875 0  0.03125 0.1875 0  0.0625 0.1875 0  0.09375 0.1875 0  0.125 0.1875 0  0.15625 0.1875 0  0.1875 0.1875 0  0.21875 0.1875 0  0.25 0.1875 0  0.28125 0.1875 0  0.3125 0.1875 0  0.34375 0.1875 0  0.375 0.1875 0  0.40625 0.1875 0  0.4375 0.1875 0  0.46875 0.1875 0  0.5 0.1875 0  0.53125 0.1875 0  0.5625 0.1875 0  0.59375 0.1875 0  0.625 0.1875 0  0.65625 0.1875 0  0.6875 0.1875 0  0.71875 0.1875 0  0.75 0.1875 0  0.78125 0.1875 0  0.8125 0.1875 0  0.84375 0.1875 0  0.875 0.1875 0  0.90625 0.1875 0  0.9375 0.1875 0  0.96875 0.1875 0  1 0.1875 0  0 0.21875 0  0.03125 0.21875 0  0.0625 0.21875 0  0.09375 0.21875 0  0.125 0.21875 0  0.15625 0.21875 0  0.1875 0.21875 0  0.21875 0.21875 0  0.25 0.21875 0  0.28125 0.21875 0  0.3125 0.21875 0  0.34375 0.21875 0  0.375 0.21875 0  0.40625 0.21875 0  0.4375 0.21875 0  0.46875 0.21875 0  0.5 0.21875 0  0.53125 0.21875 0  0.5625 0.21875 0  0.59375 0.21875 0  0.625 0.21875 0  0.65625 0.21875 0  0.6875 0.21875 0  0.71875 0.21875 0  0.75 0.21875 0  0.78125 0.21875 0  0.8125 0.21875 0  0.84375 0.21875 0  0.875 0.21875 0  0.90625 0.21875 0  0.9375 0.21875 0  0.96875 0.21875 0  1 0.21875 0  0 0.25 0  0.03125 0.25 0  0.0625 0.25 0  0.09375 0.25 0  0.125 0.25 0  0.15625 0.25 0  0.1875 0.25 0  0.21875 0.25 0  0.25 0.25 0  0.28125 0.25 0  0.3125 0.25 0  0.34375 0.25 0  0.375 0.25 0  0.40625 0.25 0  0.4375 0.25 0  0.46875 0.25 0  0.5 0.25 0  0.53125 0.25 0  0.5625 0.25 0  0.59375 0.25 0  0.625 0.25 0  0.65625 0.25 0  0.6875 0.25 0  0.71875 0.25 0  0.75 0.25 0  0.78125 0.25 0  0.8125 0.25 0  0.84375 0.25 0  0.875 0.25 0  0.90625 0.25 0  0.9375 0.25 0  0.96875 0.25 0  1 0.25 0  0 0.28125 0  0.03125 0.28125 0  0.0625 0.28125 0  0.09375 0.28125 0  0.125 0.28125 0  0.15625 0.28125 0  0.1875 0.28125 0  0.21875 0.28125 0  0.25 0.28125 0  0.28125 0.28125 0  0.3125 0.28125 0  0.34375 0.28125 0  0.375 0.28125 0  0.40625 0.28125 0  0.4375 0.28125 0  0.46875 0.28125 0  0.5 0.28125 0  0.53125 0.28125 0  0.5625 0.28125 0  0.59375 0.28125 0  0.625 0.28125 0  0.65625 0.28125 0  0.6875 0.28125 0  0.71875 0.28125 0  0.75 0.28125 0  0.78125 0.28125 0  0.8125 0.28125 0  0.84375 0.28125 0  0.875 0.28125 0  0.90625 0.28125 0  0.9375 0.28125 0  0.96875 0.28125 0  1 0.28125 0  0 0.3125 0  0.03125 0.3125 0  0.0625 0.3125 0  0.09375 0.3125 0  0.125 0.3125 0  0.15625 0.3125 0  0.1875 0.3125 0  0.21875 0.3125 0  0.25 0.3125 0  0.28125 0.3125 0  0.3125 0.3125 0  0.34375 0.3125 0  0.375 0.3125 0  0.40625 0.3125 0  0.4375 0.3125 0  0.46875 0.3125 0  0.5 0.3125 0  0.53125 0.3125 0  0.5625 0.3125 0  0.59375 0.3125 0  0.625 0.3125 0  0.65625 0.3125 0  0.6875 0.3125 0  0.71875 0.3125 0  0.75 0.3125 0  0.78125 0.3125 0  0.8125 0.3125 0  0.84375 0.3125 0  0.875 0.3125 0  0.90625 0.3125 0  0.9375 0.3125 0  0.96875 0.3125 0  1 0.3125 0  0 0.34375 0  0.03125 0.34375 0  0.0625 0.34375 0  0.09375 0.34375 0  0.125 0.34375 0  0.15625 0.34375 0  0.1875 0.34375 0  0.21875 0.34375 0  0.25 0.34375 0  0.28125 0.34375 0  0.3125 0.34375 0  0.34375 0.34375 0  0.375 0.34375 0  0.40625 0.34375 0  0.4375 0.34375 0  0.46875 0.34375 0  0.5 0.34375 0  0.53125 0.34375 0  0.5625 0.34375 0  0.59375 0.34375 0  0.625 0.34375 0  0.65625 0.34375 0  0.6875 0.34375 0  0.71875 0.34375 0  0.75 0.34375 0  0.78125 0.34375 0  0.8125 0.34375 0  0.84375 0.34375 0  0.875 0.34375 0  0.90625 0.34375 0  0.9375 0.34375 0  0.96875 0.34375 0  1 0.34375 0  0 0.375 0  0.03125 0.375 0  0.0625 0.375 0  0.09375 0.375 0  0.125 0.375 0  0.15625 0.375 0  0.1875 0.375 0  0.21875 0.375 0  0.25 0.375 0  0.28125 0.375 0  0.3125 0.375 0  0.34375 0.375 0  0.375 0.375 0  0.40625 0.375 0  0.4375 0.375 0  0.46875 0.375 0  0.5 0.375 0  0.53125 0.375 0  0.5625 0.375 0  0.59375 0.375 0  0.625 0.375 0  0.65625 0.375 0  0.6875 0.375 0  0.71875 0.375 0  0.75 0.375 0  0.78125 0.375 0  0.8125 0.375 0  0.84375 0.375 0  0.875 0.375 0  0.90625 0.375 0  0.9375 0.375 0  0.96875 0.375 0  1 0.375 0  0 0.40625 0  0.03125 0.40625 0  0.0625 0.40625 0  0.09375 0.40625 0  0.125 0.40625 0  0.15625 0.40625 0  0.1875 0.40625 0  0.21875 0.40625 0  0.25 0.40625 0  0.28125 0.40625 0  0.3125 0.40625 0  0.34375 0.40625 0  0.375 0.40625 0  0.40625 0.40625 0  0.4375 0.40625 0  0.46875 0.40625 0  0.5 0.40625 0  0.53125 0.40625 0  0.5625 0.40625 0  0.59375 0.40625 0  0.625 0.40625 0  0.65625 0.40625 0  0.6875 0.40625 0  0.71875 0.40625 0  0.75 0.40625 0  0.78125 0.40625 0  0.8125 0.40625 0  0.84375 0.40625 0  0.875 0.40625 0  0.90625 0.40625 0  0.9375 0.40625 0  0.96875 0.40625 0  1 0.40625 0  0 0.4375 0  0.03125 0.4375 0  0.0625 0.4375 0  0.09375 0.4375 0  0.125 0.4375 0  0.15625 0.4375 0  0.1875 0.4375 0  0.21875 0.4375 0  0.25 0.4375 0  0.28125 0.4375 0  0.3125 0.4375 0  0.34375 0.4375 0  0.375 0.4375 0  0.40625 0.4375 0  0.4375 0.4375 0  0.46875 0.4375 0  0.5 0.4375 0  0.53125 0.4375 0  0.5625 0.4375 0  0.59375 0.4375 0  0.625 0.4375 0  0.65625 0.4375 0  0.6875 0.4375 0  0.71875 0.4375 0  0.75 0.4375 0  0.78125 0.4375 0  0.8125 0.4375 0  0.84375 0.4375 0  0.875 0.4375 0  0.90625 0.4375 0  0.9375 0.4375 0  0.96875 0.4375 0  1 0.4375 0  0 0.46875 0  0.03125 0.46875 0  0.0625 0.46875 0  0.09375 0.46875 0  0.125 0.46875 0  0.15625 0.46875 0  0.1875 0.46875 0  0.21875 0.46875 0  0.25 0.46875 0  0.28125 0.46875 0  0.3125 0.46875 0  0.34375 0.46875 0  0.375 0.46875 0  0.40625 0.46875 0  0.4375 0.46875 0  0.46875 0.46875 0  0.5 0.46875 0  0.53125 0.46875 0  0.5625 0.46875 0  0.59375 0.46875 0  0.625 0.46875 0  0.65625 0.46875 0  0.6875 0.46875 0  0.71875 0.46875 0  0.75 0.46875 0  0.78125 0.46875 0  0.8125 0.46875 0  0.84375 0.46875 0  0.875 0.46875 0  0.90625 0.46875 0  0.9375 0.46875 0  0.96875 0.46875 0  1 0.46875 0  0 0.5 0  0.03125 0.5 0  0.0625 0.5 0  0.09375 0.5 0  0.125 0.5 0  0.15625 0.5 0  0.1875 0.5 0  0.21875 0.5 0  0.25 0.5 0  0.28125 0.5 0  0.3125 0.5 0  0.34375 0.5 0  0.375 0.5 0  0.40625 0.5 0  0.4375 0.5 0  0.46875 0.5 0  0.5 0.5 0  0.53125 0.5 0  0.5625 0.5 0  0.59375 0.5 0  0.625 0.5 0  0.65625 0.5 0  0.6875 0.5 0  0.71875 0.5 0  0.75 0.5 0  0.78125 0.5 0  0.8125 0.5 0  0.84375 0.5 0  0.875 0.5 0  0.90625 0.5 0  0.9375 0.5 0  0.96875 0.5 0  1 0.5 0  0 0.53125 0  0.03125 0.53125 0  0.0625 0.53125 0  0.09375 0.53125 0  0.125 0.53125 0  0.15625 0.53125 0  0.1875 0.53125 0  0.21875 0.53125 0  0.25 0.53125 0  0.28125 0.53125 0  0.3125 0.53125 0  0.34375 0.53125 0  0.375 0.53125 0  0.40625 0.53125 0  0.4375 0.53125 0  0.46875 0.53125 0  0.5 0.53125 0  0.53125 0.53125 0  0.5625 0.53125 0  0.59375 0.53125 0  0.625 0.53125 0  0.65625 0.53125 0  0.6875 0.53125 0  0.71875 0.53125 0  0.75 0.53125 0  0.78125 0.531
[...]
<PointData  Scalars="theta"> 
<DataArray  type="Float64"  Name="theta"  format="ascii">6.1982220645091020e-04  1.8493468913152959e-03  0.0000000000000000e+00  7.1089495429889271e-03  3.0865480629876907e-03  4.4693589088968015e-04  4.0264954482730717e-04  1.6815659790885874e-03  2.3658512338075944e-03  2.8645696596505633e-03  3.4713264136887485e-03  3.7400844163759345e-03  2.8218479081325936e-03  6.7201949968710207e-04  1.0678853293654275e-03  0.0000000000000000e+00  2.5168750070529394e-03  7.8887427375979435e-03  1.7788190626085401e-02  6.6928209564733106e-03  1.5074427952536950e-02  5.9915462270701964e-03  1.4077629359595814e-02  6.6928209564733289e-03  1.4058153609846915e-02  7.8887427375979313e-03  4.4220546987372589e-03  0.0000000000000000e+00  5.9204174394913139e-03  4.2006481933069143e-03  3.2376017887484946e-03  2.5168750070529325e-03  1.9293176666628467e-03  8.2389699577320018e-04  5.7987997446575282e-04  1.6437317536838662e-03  1.0866678805529884e-02  6.6346263836822442e-03  2.8924215612929050e-03  4.1558996749382969e-04  3.5788193418287228e-04  1.3876433127702037e-03  1.8221678972253057e-03  2.2062785684035854e-03  2.8645696596505655e-03  3.3242522241367809e-03  2.6239371335313681e-03  6.2975325536409655e-04  9.9663391027195289e-04  8.0013970600676786e-03  2.2370423788929338e-03  7.3803808408847175e-03  1.6887133723316280e-02  6.1641786271587123e-03  1.4093848392495384e-02  5.3253907275857704e-03  1.3161890755960279e-02  6.1641786271587279e-03  1.3346040915722453e-02  7.3803808408847054e-03  3.9303992987879833e-03  8.0013970600676543e-03  5.5253954904210135e-03  3.9364510637058111e-03  3.0105320462528555e-03  2.2370423788929273e-03  1.1084846381340351e-03  7.7524712791184785e-04  5.4340878770673849e-04  1.4176220985167019e-03  1.0316229569083155e-02  6.1875042700109406e-03  2.7131636287435735e-03  3.8276398127897002e-04  3.0865214924546313e-04  1.0687565901004886e-03  1.2408007747440112e-03  1.5023599972016119e-03  2.2062785684035871e-03  2.8669723045856204e-03  2.4166815910230234e-03  5.9072427422127919e-04  9.2946855162971199e-04  7.5960880432979867e-03  1.9293176666628526e-03  6.9161964236722625e-03  1.5957505038476306e-02  5.5953544201578533e-03  1.3153478981249410e-02  4.5928367336958292e-03  1.2283703399577430e-02  5.5953544201578680e-03  1.2611347706822634e-02  6.9161964236722521e-03  3.3897385564700877e-03  7.5960880432979641e-03  5.1530268945610943e-03  3.6924893643793476e-03  2.7727407346732351e-03  2.5065149948300860e-03  7.5481990429254091e-04  7.2683771736330529e-04  5.0973100811989769e-04  1.1698344575858783e-03  9.7483260347152913e-03  5.7723518118623727e-03  2.5439079580302985e-03  3.4744290587076772e-04  2.5470251907971925e-04  7.2776718711200302e-04  6.2985249924707920e-04  7.6262460361655837e-04  1.5023599972016129e-03  2.3658512338075974e-03  2.1936726432403276e-03  5.5387303820267028e-04  8.6710557988178599e-04  7.1779270070133142e-03  1.5920902252108901e-03  6.4875648961647747e-03  1.5015238571306856e-02  4.9732485434290513e-03  1.2267037004849345e-02  3.7900500244496269e-03  1.1455877519096999e-02  4.9732485434290643e-03  1.1866666754424330e-02  6.4875648961647651e-03  2.7972426288467621e-03  7.1779270070132933e-03  4.8072830067465424e-03  3.4621402776716373e-03  2.1819199864495198e-03  2.2752163108516218e-03  3.8315998255093178e-04  6.7955750140036536e-04  4.7793238648547766e-04  9.0100119704074463e-04  9.1727021692426334e-03  5.3913612613351158e-03  2.3789217925246570e-03  3.0881331114996746e-04  1.9617072577405540e-04  3.6942754308569889e-04  0.0000000000000000e+00  0.0000000000000000e+00  7.6262460361655880e-04  1.8221678972253077e-03  1.9497744840705445e-03  5.1795138134336585e-04  8.0987430864057038e-04  6.7540813051826963e-03  1.2262206754211418e-03  6.0828502169013058e-03  1.4077629359595776e-02  4.2891347817430817e-03  1.1443976471146693e-02  2.9190793506975597e-03  1.0687241974819043e-02  4.2891347817430930e-03  1.1125666469386203e-02  6.0828502169012972e-03  2.1544235944335006e-03  6.7540813051826763e-03  4.4899895605091120e-03  5.1537009311212697e-04  2.0458049630735684e-03  2.0222519172627550e-03  0.0000000000000000e+00  6.3421608224334392e-04  4.4693589088968063e-04  6.1353456233962213e-04  8.5999233879185122e-03  5.0439342089081190e-03  2.2120757150598160e-03  2.6633334375951039e-04  1.3358197611383236e-04  0.0000000000000000e+00  1.4396520304024225e-02  1.4396520304024234e-02  0.0000000000000000e+00  1.2408007747440127e-03  1.6815659790885835e-03  4.8162477465701306e-04  7.5768484660150332e-04  6.3323305072642234e-03  8.3499197103983956e-04  5.6883445393418226e-03  1.3161890755960241e-02  3.5394324525296100e-03  1.0688643629686283e-02  1.9877399472354599e-03  9.9818556199477489e-03  3.5394324525296192e-03  1.0401950706103532e-02  5.6883445393418131e-03  1.4670494794527327e-03  6.3323305072642061e-03  4.6591719351216315e-04  4.8215890512458108e-04  1.9131234660231557e-03  1.7440735084994963e-03  4.7280862426572123e-03  5.9147486083645077e-04  4.1558996749383012e-04  3.1144103495889524e-04  8.0405052051079930e-03  4.7266991350417521e-03  2.0373516538254523e-03  2.1978066161633652e-04  6.7808582346363526e-05  1.1890101959666305e-02  1.3667267719066319e-02  1.3667267719066328e-02  1.1890101959666319e-02  6.2985249924707985e-04  1.3876433127702004e-03  4.4358293185468232e-04  7.1003073409255232e-04  5.9204174394913312e-03  4.2385674680062179e-04  5.2893915444850595e-03  1.2283703399577395e-02  2.7260548327111733e-03  9.9998521036320839e-03  1.0090120824415242e-03  9.3386105269762758e-03  2.7260548327111803e-03  9.7079120029118105e-03  5.2893915444850509e-03  7.4470035799507385e-04  2.4387745954618837e-03  4.3465633941986939e-04  4.5183382364108682e-04  1.7789462320279379e-03  1.4392250861073679e-03  4.4885860688966203e-03  5.5178967732886824e-04  3.8276398127897040e-04  0.0000000000000000e+00  7.5040268114654422e-03  4.4337617824548922e-03  1.8493468913152963e-03  1.6927406943660579e-04  0.0000000000000000e+00  1.1287811447348828e-02  1.2914891127324829e-02  1.2914891127324838e-02  1.1287811447348840e-02  0.0000000000000000e+00  1.0687565901004862e-03  4.0264954482730809e-04  6.6602655325557157e-04  5.5253954904210300e-03  0.0000000000000000e+00  4.8716011561094315e-03  1.1455877519096968e-02  1.8563003736227306e-03  9.3709176866950336e-03  0.0000000000000000e+00  8.7512644836630227e-03  1.8563003736227351e-03  9.0536743890572251e-03  4.8716011561094237e-03  3.3075652106537871e-03  2.2744201934457140e-03  4.0596786660270244e-04  4.2383140581733227e-04  1.6384335414986780e-03  1.1084846381340351e-03  4.2414915392750491e-03  5.1537009311212665e-04  3.4744290587076804e-04  9.6076887406655841e-03  6.9983138843229776e-03  4.1571697935596976e-03  1.6437317536838667e-03  1.1526676373831528e-04  6.9739044605662028e-03  1.0666422792385314e-02  1.2152286396379721e-02  1.2152286396379729e-02  1.0666422792385324e-02  6.9739044605661863e-03  7.2776718711200128e-04  3.5788193418287309e-04  6.2447772450456649e-04  5.1530268945611081e-03  1.4058153609846937e-02  4.4220546987372667e-03  1.0687241974819014e-02  9.4229102163542690e-04  8.7901547187077388e-03  1.7788190626085446e-02  8.2089045457041151e-03  9.4229102163542939e-04  8.4462153855764579e-03  2.2744201934457187e-03  3.0846610917827548e-03  2.1218172871740938e-03  3.7980671500535522e-04  3.9739147123285512e-04  1.4872405413704228e-03  7.5481990429254091e-04  3.9910378976433991e-03  4.8215890512458070e-04  3.0881331114996773e-04  9.1210133703927502e-03  6.5287599114791260e-03  3.8875548881028379e-03  1.4176220985167023e-03  5.8511455423356548e-05  6.6206428565315275e-03  1.0036586705999452e-02  1.1393450923037975e-02  1.1393450923037984e-02  1.0036586705999460e-02  6.6206428565315110e-03  3.6942754308569802e-04  3.0865214924546383e-04  5.8397697254753767e-04  4.8072830067465563e-03  1.3346040915722477e-02  3.9303992987879902e-03  9.9818556199477212e-03  0.0000000000000000e+00  8.2417972526019050e-03  1.6887133723316329e-02  7.6968072914195256e-03  0.0000000000000000e+00  4.0596786660270249e-04  2.1218172871740981e-03  2.8776948289850742e-03  1.9817717108290352e-03  3.5591901022981093e-04  3.7161848882742281e-04  1.3218853178366540e-03  3.8315998255093178e-04  3.7418221506309432e-03  4.5183382364108649e-04  2.6633334375951066e-04  8.6189059196642246e-03  6.0978444174125592e-03  3.6149005763690886e-03  1.1698344575858785e-03  0.0000000000000000e+00  6.2561796141392045e-03  9.4098636536155428e-03  1.0652315993829100e-02  1.0652315993829110e-02  9.4098636536155498e-03  6.2561796141391889e-03  0.0000000000000000e+00  2.5470251907971984e-04  5.4301964998841883e-04  4.4899895605091250e-03  1.2611347706822656e-02  3.3897385564700929e-03  9.3386105269762515e-03  1.9047723956174465e-02  7.7072722037339518e-03  1.5957505038476351e-02  7.1976277839068395e-03  2.4070055197871352e-04  3.7980671500535527e-04  1.9817717108290395e-03  2.6877593273250096e-03  1.8540634993585183e-03  3.3386091649181474e-04  3.4555496401164241e-04  1.1400484501623996e-03  0.0000000000000000e+00  3.4984195930166770e-03  4.2383140581733194e-04  2.1978066161633674e-04  8.1099725988094933e-03  5.7048905771100045e-03  3.3293723255223171e-03  9.0100119704074496e-04  1.2800631239893107e-03  5.8867616976930786e-03  8.7977595001069789e-03  9.9415724239708490e-03  9.9415724239708594e-03  8.7977595001069858e-03  5.8867616976930647e-03  1.2800631239893135e-03  1.9617072577405589e-04  5.0012844245419846e-04  4.2006481933069264e-03  1.1866666754424349e-02  2.7972426288467665e-03  8.7512644836630002e-03  1.8082865668250396e-02  7.1667213797482242e-03  1.5015238571306898e-02  7.9759399535821380e-04  2.2568489537230432e-04  3.5591901022981098e-04  1.8540634993585224e-03  2.5145562612603088e-03  1.7374533401432858e-03  3.1303362367868698e-04  3.1826079578730742e-04  9.4077819590482282e-04  7.2331399253643090e-03  3.2649981256246898e-03  3.9739147123285480e-04  1.6927406943660598e-04  7.6035547367650667e-03  5.3460850676264058e-03  3.0221411942679701e-03  6.1353456233962246e-04  1.2152218066178091e-03  5.5191696698546162e-03  8.2107556037258802e-03  9.2715879186858439e-03  9.2715879186858509e-03  8.2107556037258871e-03  5.5191696698546032e-03  1.2152218066178121e-03  1.3358197611383269e-04  4.5397709255266035e-04  3.9364510637058224e-03  1.1125666469386220e-02  2.1544235944335041e-03  8.2089045457040943e-03  1.7087412508185507e-02  6.6006473269118841e-03  3.5272906531423517e-04  7.2399282327027825e-04  2.1104801144634314e-04  3.3386091649181479e-04  1.7374533401432898e-03  2.3564048246548872e-03  1.6297746055414747e-03  2.9273170313079443e-04  2.8889200949264046e-04  7.2458310247529333e-04  6.8667468056005194e-03  3.0449626965532587e-03  3.7161848882742249e-04  1.1526676373831539e-04  7.1089495429889227e-03  5.0147612491069542e-03  2.6861317735805022e-03  3.1144103495889535e-04  1.1483244237709394e-03  5.1601520684105770e-03  7.6574146636232540e-03  8.6495079414584206e-03  8.6495079414584276e-03  7.6574146636232609e-03  5.1601520684105640e-03  1.1483244237709420e-03  6.7808582346363689e-05  4.0350275331155514e-04  3.6924893643793576e-03  1.0401950706103547e-02  1.4670494794527351e-03  7.6968072914195057e-03  1.6078426718844820e-02  2.0647698532795093e-03  2.4018999466684043e-04  6.4349744152228697e-04  1.9624612389492117e-04  3.1303362367868703e-04  1.6297746055414781e-03  2.2103665490557757e-03  1.5281041456215447e-03  2.7220091621276712e-04  2.5677225382570736e-04  4.9340309215567134e-04  6.4887356577876913e-03  2.8406600095116320e-03  3.4555496401164203e-04  5.8511455423356602e-05  6.6346263836822399e-03  4.7019246882403342e-03  2.3166308938313220e-03  0.0000000000000000e+00  1.0805176083983558e-03  4.8158565270242553e-03  7.1436381259530083e-03  8.0786174448615224e-03  8.0786174448615293e-03  7.1436381259530153e-03  4.8158565270242431e-03  1.0805176083983582e-03  0.0000000000000000e+00  3.4799742635914765e-04  3.4621402776716464e-03  9.7079120029118244e-03  7.4470035799507504e-04  7.1976277839068204e-03  2.9268681882171433e-04  1.9428483254168153e-03  1.2192470500855659e-04  5.5497874966306733e-04  1.8074533450738629e-04  2.9273170313079449e-04  1.5281041456215480e-03  2.0724769397380107e-03  1.4289983416228098e-03  2.5070072558700299e-04  2.2145098827315750e-04  2.5046016818824240e-04  6.1055856597198328e-03  2.6531689042985870e-03  3.1826079578730710e-04  0.0000000000000000e+00  6.1875042700109354e-03  4.3969794867599584e-03  1.9117045705957045e-03  1.1045557041113950e-03  1.0130459356547542e-03  4.4913053277590214e-03  6.6721390366595882e-03  7.5580197496778571e-03  7.5580197496778632e-03  6.6721390366595943e-03  4.4913053277590102e-03  1.0130459356547563e-03  1.4432385253577769e-03  2.8717059428750067e-04  3.2376017887485037e-03  9.0536743890572390e-03  0.0000000000000000e+00  9.9022126427178732e-05  2.7382566042063902e-04  1.8215294080904353e-03  0.0000000000000000e+00  4.5797343682995239e-04  1.6406633673835848e-04  2.7220091621276717e-04  1.4289983416228128e-03  1.9380656210002878e-03  1.3287753041304759e-03  2.2756631465376586e-04  1.8274333972322296e-04  0.0000000000000000e+00  5.7243294225805957e-03  2.4821948947062202e-03  2.8889200949264019e-04  5.8792585002232734e-03  5.7723518118623683e-03  4.0885965956684832e-03  1.4723861956071223e-03  1.0486046766795733e-03  9.4714810251548349e-04  4.1899598472957614e-03  6.2421768273908116e-03  7.0826628448756538e-03  7.0826628448756607e-03  6.2421768273908176e-03  4.1899598472957518e-03  9.4714810251548566e-04  1.3701315937450179e-03  2.2117749013983532e-04  3.0105320462528633e-03  8.4462153855764700e-03  2.9885504384112344e-04  8.8012592061562575e-05  2.5660356750423430e-04  1.7030403674971907e-03  2.3016455053951972e-03  3.5272906531423420e-04  1.4582501999699292e-04  2.5070072558700299e-04  1.3287753041304788e-03  1.8021390647976177e-03  1.2238200279502814e-03  2.0226490726094707e-04  1.4074809198357039e-04  7.2331399253643090e-03  5.3519663422434477e-03  2.3260788059233520e-03  2.5677225382570714e-04  5.5814459477188253e-03  5.3913612613351123e-03  3.7656527664492942e-03  1.0026177801802250e-03  9.9087948764096565e-04  8.8395250974896236e-04  3.9134113691472556e-03  5.8495790366767820e-03  6.6437145547969222e-03  6.6437145547969291e-03  5.8495790366767872e-03  3.9134113691472461e-03  8.8395250974896452e-04  1.2947065007470125e-03  1.5061027117168569e-04  2.7727407346732429e-03  5.1680550233984622e-04  2.8240321572654988e-04  7.5905691530616434e-05  2.4070055197871363e-04  1.5894101493259627e-03  2.1850561560927120e-03  2.4018999466683978e-04  1.2576551520713389e-04  2.2756631465376592e-04  1.2238200279502843e-03  1.6597944541828656e-03  1.1108871460504162e-03  1.7444160316604598e-04  9.5842069132536008e-05  6.8667468056005194e-03  4.9948725735220814e-03  2.1819199864495219e-03  2.2145098827315734e-04  5.2741900012156480e-03  5.0439342089081156e-03  3.4181621146893476e-03  5.0894658311795304e-04  9.3236955692442309e-04  8.2438099935975889e-04  3.6612255275736503e-03  5.4870511609234722e-03  6.2292587692752690e-03  6.2292587692752742e-03  5.4870511609234765e-03  3.6612255275736420e-03  8.2438099935976095e-04  1.2182560457705814e-03  7.6452447194302821e-05  3.2851325667857103e-05  4.8477646234121308e-04  2.6572773420495009e-04  6.2638056765840894e-05  2.2568489537230443e-04  1.4822962917611865e-03  2.0647698532795036e-03  1.2192470500855627e-04  1.0378283000757880e-04  2.0226490726094710e-04  1.1108871460504188e-03  1.5066302905057697e-03  9.8737585971425007e-04  1.4395077392888016e-04  4.8651135625373283e-05  6.4887356577876913e-03  4.6582570878204556e-03  2.0458049630735706e-03  1.8274333972322283e-04  4.9627570818687253e-03  4.7266991350417486e-03  3.0381220708452618e-03  0.0000000000000000e+00  8.7414881796381446e-04  7.6906890850691957e-04  3.4309550477109318e-03  5.1447516716330941e-03  5.8252577066421393e-03  5.8252577066421436e-03  5.1447516716330976e-03  3.4309550477109240e-03  7.6906890850692131e-04  1.1421834555607946e-03  1.7665093128245915e-04  1.6675916066983729e-05  4.5453458366854073e-04  2.4913467308144705e-04  4.8243547418490792e-05  2.1104801144634325e-04  1.3828411766816334e-03  1.9428483254168103e-03  0.0000000000000000e+00  7.9933065283504102e-05  1.7444160316604601e-04  9.8737585971425223e-04  1.3391192648583867e-03  8.5155368881560992e-04  1.1087023363332697e-04  0.0000000000000000e+00  6.1055856597198328e-03  4.3457099288520739e-03  1.9131234660231576e-03  1.4074809198357028e-04  4.6528634539155650e-03  4.4337617824548887e-03  2.6202018522603187e-03  5.8792585002232760e-03  8.1728613196148739e-04  7.1830831795467590e-04  3.2183214825512812e-03  4.8110867494797378e-03  5.4167022839169505e-03  5.4167022839169540e-03  4.8110867494797413e-03  3.2183214825512738e-03  7.1830831795467764e-04  1.0980269442334577e-05  1.6526729190290284e-04  0.0000000000000000e+00  4.2505556190894827e-04  2.3292866056206710e-04  3.2851325667857063e-05  1.9624612389492128e-04  1.2915699862955932e-03  1.8215294080904305e-03  5.2158327320811720e-04  5.4430225382887476e-05  1.4395077392888019e-04  8.5155368881561176e-04  1.1549117172909441e-03  7.0270973392922613e-04  7.5496814534907700e-05  4.7280862426572071e-03  5.7243294225805957e-03  4.0588815316600227e-03  1.7789462320279396e-03  9.5842069132535940e-05  4.3501983834439420e-03  4.1571697935596950e-03  2.1622140454862207e-03  5.5814459477188279e-03  7.6275518645044043e-04  6.7201949968710044e-04  3.0175524779363959e-03  4.4736603763151622e-03  4.9888560691151058e-03  4.9888560691151093e-03  4.4736603763151656e-03  3.0175524779363890e-03  5.1764920891667102e-05  5.5737796844038809e-06  1.5487290938658903e-04  1.0504807401710591e-03  3.9524421904262459e-04  2.1738720011101693e-04  1.6675916066983712e-05  1.8074533450738637e-04  1.2083393638997323e-03  1.7030403674971860e-03  4.9516258666544599e-04  2.7629748618642170e-05  1.1087023363332701e-04  7.0270973392922776e-04  9.5304349711412828e-04  5.4122385209014645e-04  3.8323523234272010e-05  4.4885860688966160e-03  5.3519663422434477e-03  3.7973213841684776e-03  1.6384335414986798e-03  4.8651135625373256e-05  4.0599445522177865e-03  3.8875548881028349e-03  1.6653274577513293e-03  5.2741900012156498e-03  7.1135143114354560e-04  6.2975325536409493e-04  2.8218479081326001e-03  4.1203017167487088e-03  4.5284894462445649e-03  4.5284894462445675e-03  4.1203017167487132e-03  9.9889695129928830e-05  4.8556788017193532e-05  0.0000000000000000e+00  1.4527465513621956e-04  9.9726886820196230e-04  3.6402527176139895e-04  2.0273699695296372e-04  0.0000000000000000e+00  1.6406633673835856e-04  1.1323416185910458e-03  1.5894101493259584e-03  4.6790412162539042e-04  0.0000000000000000e+00  7.5496814534907727e-05  5.4122385209014765e-04  7.3402978187509069e-04  3.6854505888617162e-04  0.0000000000000000e+00  4.2414915392750448e-03  4.9948725735220814e-03  3.5584912408899451e-03  1.4872405413704243e-03  0.0000000000000000e+00  3.7863359291247681e-03  3.6149005763690860e-03  1.1340006609307678e-03  4.9627570818687279e-03  6.6362309313203541e-04  5.9072427422127778e-04  2.6239371335313746e-03  3.7400844163759306e-03  4.0250003576778361e-03  4.0250003576778387e-03  3.3097283193876883e-05  9.4390814891627141e-05  4.5527663036870009e-05  3.1480123131097279e-04  1.3621196576053045e-04  9.4236969101960837e-04  3.3043338562986510e-04  1.8913429722625585e-04  5.2158327320811742e-04  1.4582501999699300e-04  1.0621647051685561e-03  1.4822962917611822e-03  4.4027509298996670e-04  7.2345604606449915e-04  3.8323523234272023e-05  3.6854505888617248e-04  4.9983578539753760e-04  1.8708001409211528e-04  9.1841655582971735e-04  3.9910378976433939e-03  4.6582570878204556e-03  3.3379536154714349e-03  1.3218853178366553e-03  1.1045557041113958e-03  3.5322905822842061e-03  3.3293723255223150e-03  5.7563886562082530e-04  4.6528634539155667e-03  6.1982220645090955e-04  5.5387303820266887e-04  2.4166815910230291e-03  3.3242522241367775e-03  3.4713264136887459e-03  5.9044035005825603e-05  2.9417442234296112e-05  8.8817180450232570e-05  4.2574948287433051e-05  2.988550438411237