<?xml version="1.0"?>
<VTKFile type="UnstructuredGrid"  version="0.1"  >
<UnstructuredGrid>
<Piece  NumberOfPoints="1089" NumberOfCells="2048">
<Points>
<DataArray  type="Float64"  NumberOfComponents="3"  format="ascii">0 0 0  0.03125 0 0  0.0625 0 0  0.09375 0 0  0.125 0 0  0.15625 0 0  0.1875 0 0  0.21875 0 0  0.25 0 0  0.28125 0 0  0.3125 0 0  0.34375 0 0  0.375 0 0  0.40625 0 0  0.4375 0 0  0.46875 0 0  0.5 0 0  0.53125 0 0  0.5625 0 0  0.59375 0 0  0.625 0 0  0.65625 0 0  0.6875 0 0  0.71875 0 0  0.75 0 0  0.78125 0 0  0.8125 0 0  0.84375 0 0  0.875 0 0  0.90625 0 0  0.9375 0 0  0.96875 0 0  1 0 0  0 0.03125 0  0.03125 0.03125 0  0.0625 0.03125 0  0.09375 0.03125 0  0.125 0.03125 0  0.15625 0.03125 0  0.1875 0.03125 0  0.21875 0.03125 0  0.25 0.03125 0  0.28125 0.03125 0  0.3125 0.03125 0  0.34375 0.03125 0  0.375 0.03125 0  0.40625 0.03125 0  0.4375 0.03125 0  0.46875 0.03125 0  0.5 0.03125 0  0.53125 0.03125 0  0.5625 0.03125 0  0.59375 0.03125 0  0.625 0.03125 0  0.65625 0.03125 0  0.6875 0.03125 0  0.71875 0.03125 0  0.75 0.03125 0  0.78125 0.03125 0  0.8125 0.03125 0  0.84375 0.03125 0  0.875 0.03125 0  0.90625 0.03125 0  0.9375 0.03125 0  0.96875 0.03125 0  1 0.03125 0  0 0.0625 0  0.03125 0.0625 0  0.0625 0.0625 0  0.09375 0.0625 0  0.125 0.0625 0  0.15625 0.0625 0  0.1875 0.0625 0  0.21875 0.0625 0  0.25 0.0625 0  0.28125 0.0625 0  0.3125 0.0625 0  0.34375 0.0625 0  0.375 0.0625 0  0.40625 0.0625 0  0.4375 0.0625 0  0.46875 0.0625 0  0.5 0.0625 0  0.53125 0.0625 0  0.5625 0.0625 0  0.59375 0.0625 0  0.625 0.0625 0  0.65625 0.0625 0  0.6875 0.0625 0  0.71875 0.0625 0  0.75 0.0625 0  0.78125 0.0625 0  0.8125 0.0625 0  0.84375 0.0625 0  0.875 0.0625 0  0.90625 0.0625 0  0.9375 0.0625 0  0.96875 0.0625 0  1 0.0625 0  0 0.09375 0  0.03125 0.09375 0  0.0625 0.09375 0  0.09375 0.09375 0  0.125 0.09375 0  0.15625 0.09375 0  0.1875 0.09375 0  0.21875 0.09375 0  0.25 0.09375 0  0.28125 0.09375 0  0.3125 0.09375 0  0.34375 0.09375 0  0.375 0.09375 0  0.40625 0.09375 0  0.4375 0.09375 0  0.46875 0.09375 0  0.5 0.09375 0  0.53125 0.09375 0  0.5625 0.09375 0  0.59375 0.09375 0  0.625 0.09375 0  0.65625 0.09375 0  0.6875 0.09375 0  0.71875 0.09375 0  0.75 0.09375 0  0.78125 0.09375 0  0.8125 0.09375 0  0.84375 0.09375 0  0.875 0.09375 0  0.90625 0.09375 0  0.9375 0.09375 0  0.96875 0.09375 0  1 0.09375 0  0 0.125 0  0.03125 0.125 0  0.0625 0.125 0  0.09375 0.125 0  0.125 0.125 0  0.15625 0.125 0  0.1875 0.125 0  0.21875 0.125 0  0.25 0.125 0  0.28125 0.125 0  0.3125 0.125 0  0.34375 0.125 0  0.375 0.125 0  0.40625 0.125 0  0.4375 0.125 0  0.46875 0.125 0  0.5 0.125 0  0.53125 0.125 0  0.5625 0.125 0  0.59375 0.125 0  0.625 0.125 0  0.65625 0.125 0  0.6875 0.125 0  0.71875 0.125 0  0.75 0.125 0  0.78125 0.125 0  0.8125 0.125 0  0.84375 0.125 0  0.875 0.125 0  0.90625 0.125 0  0.9375 0.125 0  0.96875 0.125 0  1 0.125 0  0 0.15625 0  0.03125 0.15625 0  0.0625 0.15625 0  0.09375 0.15625 0  0.125 0.15625 0  0.15625 0.15625 0  0.1875 0.15625 0  0.21875 0.15625 0  0.25 0.15625 0  0.28125 0.15625 0  0.3125 0.15625 0  0.34375 0.15625 0  0.375 0.15625 0  0.40625 0.15625 0  0.4375 0.15625 0  0.46875 0.15625 0  0.5 0.15625 0  0.53125 0.15625 0  0.5625 0.15625 0  0.59375 0.15625 0  0.625 0.15625 0  0.65625 0.15625 0  0.6875 0.15625 0  0.71875 0.15625 0  0.75 0.15625 0  0.78125 0.15625 0  0.8125 0.15625 0  0.84375 0.15625 0  0.875 0.15625 0  0.90625 0.15625 0  0.9375 0.15625 0  0.96875 0.15625 0  1 0.15625 0  0 0.1875 0  0.03125 0.1875 0  0.0625 0.1875 0  0.09375 0.1875 0  0.125 0.1875 0  0.15625 0.1875 0  0.1875 0.1875 0  0.21875 0.1875 0  0.25 0.1875 0  0.28125 0.1875 0  0.3125 0.1875 0  0.34375 0.1875 0  0.375 0.1875 0  0.40625 0.1875 0  0.4375 0.1875 0  0.46875 0.1875 0  0.5 0.1875 0  0.53125 0.1875 0  0.5625 0.1875 0  0.59375 0.1875 0  0.625 0.1875 0  0.65625 0.1875 0  0.6875 0.1875 0  0.71875 0.1875 0  0.75 0.1875 0  0.78125 0.1875 0  0.8125 0.1875 0  0.84375 0.1875 0  0.875 0.1875 0  0.90625 0.1875 0  0.9375 0.1875 0  0.96875 0.1875 0  1 0.1875 0  0 0.21875 0  0.03125 0.21875 0  0.0625 0.21875 0  0.09375 0.21875 0  0.125 0.21875 0  0.15625 0.21875 0  0.1875 0.21875 0  0.21875 0.21875 0  0.25 0.21875 0  0.28125 0.21875 0  0.3125 0.21875 0  0.34375 0.21875 0  0.375 0.21875 0  0.40625 0.21875 0  0.4375 0.21875 0  0.46875 0.21875 0  0.5 0.21875 0  0.53125 0.21875 0  0.5625 0.21875 0  0.59375 0.21875 0  0.625 0.21875 0  0.65625 0.21875 0  0.6875 0.21875 0  0.71875 0.21875 0  0.75 0.21875 0  0.78125 0.21875 0  0.8125 0.21875 0  0.84375 0.21875 0  0.875 0.21875 0  0.90625 0.21875 0  0.9375 0.21875 0  0.96875 0.21875 0  1 0.21875 0  0 0.25 0  0.03125 0.25 0  0.0625 0.25 0  0.09375 0.25 0  0.125 0.25 0  0.15625 0.25 0  0.1875 0.25 0  0.21875 0.25 0  0.25 0.25 0  0.28125 0.25 0  0.3125 0.25 0  0.34375 0.25 0  0.375 0.25 0  0.40625 0.25 0  0.4375 0.25 0  0.46875 0.25 0  0.5 0.25 0  0.53125 0.25 0  0.5625 0.25 0  0.59375 0.25 0  0.625 0.25 0  0.65625 0.25 0  0.6875 0.25 0  0.71875 0.25 0  0.75 0.25 0  0.78125 0.25 0  0.8125 0.25 0  0.84375 0.25 0  0.875 0.25 0  0.90625 0.25 0  0.9375 0.25 0  0.96875 0.25 0  1 0.25 0  0 0.28125 0  0.03125 0.28125 0  0.0625 0.28125 0  0.09375 0.28125 0  0.125 0.28125 0  0.15625 0.28125 0  0.1875 0.28125 0  0.21875 0.28125 0  0.25 0.28125 0  0.28125 0.28125 0  0.3125 0.28125 0  0.34375 0.28125 0  0.375 0.28125 0  0.40625 0.28125 0  0.4375 0.28125 0  0.46875 0.28125 0  0.5 0.28125 0  0.53125 0.28125 0  0.5625 0.28125 0  0.59375 0.28125 0  0.625 0.28125 0  0.65625 0.28125 0  0.6875 0.28125 0  0.71875 0.28125 0  0.75 0.28125 0  0.78125 0.28125 0  0.8125 0.28125 0  0.84375 0.28125 0  0.875 0.28125 0  0.90625 0.28125 0  0.9375 0.28125 0  0.96875 0.28125 0  1 0.28125 0  0 0.3125 0  0.03125 0.3125 0  0.0625 0.3125 0  0.09375 0.3125 0  0.125 0.3125 0  0.15625 0.3125 0  0.1875 0.3125 0  0.21875 0.3125 0  0.25 0.3125 0  0.28125 0.3125 0  0.3125 0.3125 0  0.34375 0.3125 0  0.375 0.3125 0  0.40625 0.3125 0  0.4375 0.3125 0  0.46875 0.3125 0  0.5 0.3125 0  0.53125 0.3125 0  0.5625 0.3125 0  0.59375 0.3125 0  0.625 0.3125 0  0.65625 0.3125 0  0.6875 0.3125 0  0.71875 0.3125 0  0.75 0.3125 0  0.78125 0.3125 0  0.8125 0.3125 0  0.84375 0.3125 0  0.875 0.3125 0  0.90625 0.3125 0  0.9375 0.3125 0  0.96875 0.3125 0  1 0.3125 0  0 0.34375 0  0.03125 0.34375 0  0.0625 0.34375 0  0.09375 0.34375 0  0.125 0.34375 0  0.15625 0.34375 0  0.1875 0.34375 0  0.21875 0.34375 0  0.25 0.34375 0  0.28125 0.34375 0  0.3125 0.34375 0  0.34375 0.34375 0  0.375 0.34375 0  0.40625 0.34375 0  0.4375 0.34375 0  0.46875 0.34375 0  0.5 0.34375 0  0.53125 0.34375 0  0.5625 0.34375 0  0.59375 0.34375 0  0.625 0.34375 0  0.65625 0.34375 0  0.6875 0.34375 0  0.71875 0.34375 0  0.75 0.34375 0  0.78125 0.34375 0  0.8125 0.34375 0  0.84375 0.34375 0  0.875 0.34375 0  0.90625 0.34375 0  0.9375 0.34375 0  0.96875 0.34375 0  1 0.34375 0  0 0.375 0  0.03125 0.375 0  0.0625 0.375 0  0.09375 0.375 0  0.125 0.375 0  0.15625 0.375 0  0.1875 0.375 0  0.21875 0.375 0  0.25 0.375 0  0.28125 0.375 0  0.3125 0.375 0  0.34375 0.375 0  0.375 0.375 0  0.40625 0.375 0  0.4375 0.375 0  0.46875 0.375 0  0.5 0.375 0  0.53125 0.375 0  0.5625 0.375 0  0.59375 0.375 0  0.625 0.375 0  0.65625 0.375 0  0.6875 0.375 0  0.71875 0.375 0  0.75 0.375 0  0.78125 0.375 0  0.8125 0.375 0  0.84375 0.375 0  0.875 0.375 0  0.90625 0.375 0  0.9375 0.375 0  0.96875 0.375 0  1 0.375 0  0 0.40625 0  0.03125 0.40625 0  0.0625 0.40625 0  0.09375 0.40625 0  0.125 0.40625 0  0.15625 0.40625 0  0.1875 0.40625 0  0.21875 0.40625 0  0.25 0.40625 0  0.28125 0.40625 0  0.3125 0.40625 0  0.34375 0.40625 0  0.375 0.40625 0  0.40625 0.40625 0  0.4375 0.40625 0  0.46875 0.40625 0  0.5 0.40625 0  0.53125 0.40625 0  0.5625 0.40625 0  0.59375 0.40625 0  0.625 0.40625 0  0.65625 0.40625 0  0.6875 0.40625 0  0.71875 0.40625 0  0.75 0.40625 0  0.78125 0.40625 0  0.8125 0.40625 0  0.84375 0.40625 0  0.875 0.40625 0  0.90625 0.40625 0  0.9375 0.40625 0  0.96875 0.40625 0  1 0.40625 0  0 0.4375 0  0.03125 0.4375 0  0.0625 0.4375 0  0.09375 0.4375 0  0.125 0.4375 0  0.15625 0.4375 0  0.1875 0.4375 0  0.21875 0.4375 0  0.25 0.4375 0  0.28125 0.4375 0  0.3125 0.4375 0  0.34375 0.4375 0  0.375 0.4375 0  0.40625 0.4375 0  0.4375 0.4375 0  0.46875 0.4375 0  0.5 0.4375 0  0.53125 0.4375 0  0.5625 0.4375 0  0.59375 0.4375 0  0.625 0.4375 0  0.65625 0.4375 0  0.6875 0.4375 0  0.71875 0.4375 0  0.75 0.4375 0  0.78125 0.4375 0  0.8125 0.4375 0  0.84375 0.4375 0  0.875 0.4375 0  0.90625 0.4375 0  0.9375 0.4375 0  0.96875 0.4375 0  1 0.4375 0  0 0.46875 0  0.03125 0.46875 0  0.0625 0.46875 0  0.09375 0.46875 0  0.125 0.46875 0  0.15625 0.46875 0  0.1875 0.46875 0  0.21875 0.46875 0  0.25 0.46875 0  0.28125 0.46875 0  0.3125 0.46875 0  0.34375 0.46875 0  0.375 0.46875 0  0.40625 0.46875 0  0.4375 0.46875 0  0.46875 0.46875 0  0.5 0.46875 0  0.53125 0.46875 0  0.5625 0.46875 0  0.59375 0.46875 0  0.625 0.46875 0  0.65625 0.46875 0  0.6875 0.46875 0  0.71875 0.46875 0  0.75 0.46875 0  0.78125 0.46875 0  0.8125 0.46875 0  0.84375 0.46875 0  0.875 0.46875 0  0.90625 0.46875 0  0.9375 0.46875 0  0.96875 0.46875 0  1 0.46875 0  0 0.5 0  0.03125 0.5 0  0.0625 0.5 0  0.09375 0.5 0  0.125 0.5 0  0.15625 0.5 0  0.1875 0.5 0  0.21875 0.5 0  0.25 0.5 0  0.28125 0.5 0  0.3125 0.5 0  0.34375 0.5 0  0.375 0.5 0  0.40625 0.5 0  0.4375 0.5 0  0.46875 0.5 0  0.5 0.5 0  0.53125 0.5 0  0.5625 0.5 0  0.59375 0.5 0  0.625 0.5 0  0.65625 0.5 0  0.6875 0.5 0  0.71875 0.5 0  0.75 0.5 0  0.78125 0.5 0  0.8125 0.5 0  0.84375 0.5 0  0.875 0.5 0  0.90625 0.5 0  0.9375 0.5 0  0.96875 0.5 0  1 0.5 0  0 0.53125 0  0.03125 0.53125 0  0.0625 0.53125 0  0.09375 0.53125 0  0.125 0.53125 0  0.15625 0.53125 0  0.1875 0.53125 0  0.21875 0.53125 0  0.25 0.53125 0  0.28125 0.53125 0  0.3125 0.53125 0  0.34375 0.53125 0  0.375 0.53125 0  0.40625 0.53125 0  0.4375 0.53125 0  0.46875 0.53125 0  0.5 0.53125 0  0.53125 0.53125 0  0.5625 0.53125 0  0.59375 0.53125 0  0.625 0.53125 0  0.65625 0.53125 0  0.6875 0.53125 0  0.71875 0.53125 0  0.75 0.53125 0  0.78125 0.531
[...]
<PointData  Scalars="theta_dt"> 
<DataArray  type="Float64"  Name="theta_dt"  format="ascii">-3.1811979205885145e-03  -3.0822223175175398e-02  -5.5017166165385489e-02  -3.0332009106459171e-02  -1.8012135292785603e-02  -4.8602461354463802e-03  -6.7107767560164958e-03  -5.9025129418159600e-02  -7.4382965493811057e-02  -7.4382965493811112e-02  -5.9025129418159697e-02  -6.2334285210032536e-02  -3.0686448928990150e-02  -3.9216969574863364e-03  -4.5563845036586930e-03  -4.0510463177116478e-02  -4.1947610551438155e-02  -4.0488468679755023e-02  -8.5577218556219151e-02  -8.4404247625870260e-02  -6.5652156702250872e-02  -9.9858374782134260e-02  -6.1310898935760208e-02  -8.4404247625870496e-02  -6.7632380901211736e-02  -4.0488468679754933e-02  -7.3700373606151851e-02  -4.0510463177116388e-02  -2.5260856699397424e-02  -2.4513677425777803e-02  -3.5207603378094449e-02  -4.1947610551438037e-02  -7.1645593140823704e-03  -3.8072032622520676e-03  -3.3839993223834194e-03  -3.1465983816603649e-02  -5.2278512563124921e-02  -2.8255461410912935e-02  -1.9588817209245570e-02  -5.2410723004997599e-03  -6.8509397132562088e-03  -6.1432973045336035e-02  -7.6092352854487011e-02  -7.6092352854487039e-02  -6.1432973045336146e-02  -6.3636214639383445e-02  -3.3090895604952673e-02  -4.2649804479885098e-03  -4.2444516637374424e-03  -3.8493926636943752e-02  -4.2823738808686194e-02  -4.3069608995370573e-02  -7.9987957539866275e-02  -8.9546644191818306e-02  -6.0134726685158943e-02  -1.0194404170617061e-01  -5.6158309726890350e-02  -8.9546644191818542e-02  -6.3215141869705435e-02  -4.3069608995370517e-02  -7.5239697992862911e-02  -3.8493926636943655e-02  -2.3531483165895262e-02  -2.6659468098282776e-02  -3.7966306579854961e-02  -4.2823738808686070e-02  -2.4990150335296803e-02  -3.4767135810962546e-03  -3.6802157592570502e-03  -4.7694718956228031e-02  -4.8864072865367821e-02  -2.7062936368125880e-02  -2.1534210317040361e-02  -5.5603888391583473e-03  -3.4620023842617503e-02  -6.2844757947366978e-02  -7.6428593334534556e-02  -7.6428593334534597e-02  -6.2844757947367061e-02  -3.4620023842617427e-02  -3.5106984992744290e-02  -4.6885416808984939e-03  -4.0653140864635772e-03  -3.5979792535040474e-02  -6.9787823436366109e-02  -4.6839682479062499e-02  -7.3739151315724380e-02  -9.3255226205642403e-02  -5.6017866912300138e-02  -8.8304562684259208e-02  -5.2313677864891057e-02  -9.3255226205642638e-02  -5.8276658826448023e-02  -4.6839682479062443e-02  -3.9720727256894732e-02  -3.5979792535040370e-02  -2.2538334175646820e-02  -2.9307057533718209e-02  -4.0279434296405278e-02  -3.6411989330517494e-02  -2.5100577991033383e-02  -3.1655240164129264e-03  -4.0457031849030116e-03  -4.9640355098338647e-02  -4.5046721703402591e-02  -2.6860044723246174e-02  -2.3687720716392534e-02  -5.7906728238333992e-03  -3.6032296964317749e-02  -6.3122459329805453e-02  -7.5338501333814478e-02  -7.5338501333814506e-02  -6.3122459329805536e-02  -3.6032296964317652e-02  -3.6560943812516351e-02  -5.1574153065833510e-03  -4.0348363049421809e-03  -3.3168985027869961e-02  -7.2634715388526339e-02  -5.1491397510792805e-02  -6.7338119658534021e-02  -9.5202978121442974e-02  -5.3653626308866595e-02  -9.1906817869564866e-02  -5.0105772992026988e-02  -9.5202978121443238e-02  -5.3217870769257158e-02  -5.1491397510792722e-02  -4.1341076097043232e-02  -3.3168985027869850e-02  -2.2369363608981663e-02  -3.2237884912297864e-02  -1.7317762697901241e-02  -3.7919995017804325e-02  -2.4742571411457730e-02  -2.8994922802859221e-03  -4.4502902931884050e-03  -5.0781135047366428e-02  -4.1136377109910680e-02  -2.7670817623503610e-02  -2.5869807469772202e-02  -5.9116182608379099e-03  -3.6860351514146787e-02  -6.2222151146976379e-02  -7.2888484507960427e-02  -7.2888484507960496e-02  -6.2222151146976427e-02  -3.6860351514146704e-02  -3.7324564804623254e-02  -5.6325107265654461e-03  -4.1566282068815985e-03  -3.0289704219616419e-02  -7.4303926391437666e-02  -5.6640750952786548e-02  -6.1310898935760055e-02  -9.4557168260492402e-02  -5.3251383464723905e-02  -9.4018919098430936e-02  -4.9730128510510417e-02  -6.9787823436365984e-02  -4.8454508573387969e-02  -5.6640750952786444e-02  -4.2291131159891047e-02  -3.0289704219616312e-02  -2.3044584890146203e-02  -2.6451041145000602e-03  -1.9049610836949647e-02  -3.8712001492382027e-02  -2.3937940111395484e-02  -2.7009912844649844e-03  -4.8602461354463845e-03  -5.1005529123579869e-02  -3.7454390950600450e-02  -2.9434832545850709e-02  -2.7896844639254521e-02  -6.3545200716683499e-03  -3.7023231775078408e-02  -6.0198679554736206e-02  -6.9260229463689690e-02  -6.9260229463689774e-02  -6.0198679554736269e-02  -3.7023231775078304e-02  -6.3545200716683672e-03  -6.0738479345673500e-03  -4.4216132999624728e-03  -2.7578569220823336e-02  -7.4632264088223654e-02  -6.1858434571878708e-02  -5.6158309726890211e-02  -9.8414489324321106e-02  -5.4858781332421780e-02  -9.4434374335459315e-02  -5.1231236976191648e-02  -7.2634715388526241e-02  -4.4382374869102827e-02  -6.1858434571878618e-02  -4.2478009206232292e-02  -2.7578569220823256e-02  -2.0378308944283244e-03  -2.8137295303669353e-03  -2.0804440014565689e-02  -3.5906926756603473e-02  -2.2746353367001929e-02  -2.5869956324304365e-03  -5.2410723004997642e-03  -5.0278043285305440e-02  -3.4306710946119284e-02  -3.2011393705018695e-02  -2.9596482300969996e-02  -6.6137434026319305e-03  -3.6495173792614098e-02  -5.7202099721483456e-02  -6.4736671593311548e-02  -6.4736671593311645e-02  -5.7202099721483532e-02  -3.6495173792614022e-02  -6.6137434026319452e-03  -6.4439019974772875e-03  -4.8086566803451410e-03  -2.5260856699397507e-02  -7.3567792919402103e-02  -6.6705372310773781e-02  -5.2313677864890898e-02  -1.0067614268865714e-01  -5.8356029234846257e-02  -9.3087468006757129e-02  -5.4497228886728435e-02  -7.4303926391437541e-02  -4.1343930632394492e-02  -6.6705372310773670e-02  -4.1872150377461913e-02  -1.0386221843850600e-02  -2.0225532151501731e-03  -3.0600277285664492e-03  -2.2434578671340209e-02  -3.7371697196154262e-02  -2.1260732447284231e-02  -2.5676008486560263e-03  -5.5603888391583534e-03  -4.8642995469923324e-02  -3.1958052757771173e-02  -3.5190490432474832e-02  -3.0822223175175412e-02  -6.7657331667420190e-03  -3.5308346496193736e-02  -5.3466088299041800e-02  -5.9679323852173144e-02  -5.9679323852173206e-02  -5.3466088299041856e-02  -3.5308346496193653e-02  -6.7657331667420294e-03  -6.7107767560165123e-03  -5.2862111678758936e-03  -2.3531483165895331e-02  -7.1175359737132557e-02  -7.0769450685380028e-02  -5.0105772992026884e-02  -1.0112101517948027e-01  -6.3464190733491230e-02  -9.0060252720350231e-02  -5.9267612513443715e-02  -7.4632264088223529e-02  -3.9599005220299174e-02  -7.0769450685379903e-02  -1.4086216128697402e-02  -9.9478701401353731e-03  -2.0836041684552907e-03  -3.3639234048201661e-03  -2.3801423392584196e-02  -3.8230532366411524e-02  -1.9599804961041190e-02  -2.6451041145000576e-03  -5.7906728238334045e-03  -4.6221636391413266e-02  -3.0609259415552655e-02  -3.8709685517361182e-02  -3.1465983816603663e-02  -6.7956299077747088e-03  -3.3550761781070686e-02  -4.9289219235007321e-02  -5.4498775467206675e-02  -5.4498775467206703e-02  -4.9289219235007370e-02  -3.3550761781070623e-02  -6.7956299077747235e-03  -6.8509397132562252e-03  -5.8148542226056079e-03  -2.2538334175646893e-02  -6.7632380901211861e-02  -7.3700373606151975e-02  -4.9730128510510251e-02  -9.9678738082094001e-02  -6.9766909163393967e-02  -8.5577218556219442e-02  -6.5153562832316825e-02  -7.3567792919401992e-02  -3.9302130291597445e-02  -9.9478701401353922e-03  -1.3491705734855650e-02  -9.8732906596116343e-03  -2.2164339566975353e-03  -3.7003297056898052e-03  -2.4787161400901595e-02  -3.8399467247160139e-02  -1.7898416081567770e-02  -2.8137295303669336e-03  -5.9116182608379151e-03  -4.3202786342847486e-02  -3.0379780880522549e-02  -4.2275579129762347e-02  -5.4832619270971487e-03  -6.6987046409456522e-03  -3.1359478071975984e-02  -4.5010598623676783e-02  -4.9620763569526265e-02  -4.9620763569526306e-02  -4.5010598623676859e-02  -3.1359478071975901e-02  -6.6987046409456687e-03  -7.1645593140824007e-03  -6.3505121917237888e-03  -2.2369363608981719e-02  -6.3215141869705546e-02  -7.5239697992863036e-02  -5.1231236976191509e-02  -9.6437173926219144e-02  -7.6743889614594288e-02  -7.9987957539866553e-02  -7.1669189504877481e-02  -7.1175359737132377e-02  -2.0836041684552916e-03  -9.8732906596116568e-03  -1.3390558012688960e-02  -1.0171316838855110e-02  -2.4104482299498863e-03  -4.0412000042971026e-03  -2.5304872236746882e-02  -3.7851780180687265e-02  -1.6296385836905524e-02  -3.0600277285664475e-03  -2.9185956103292589e-02  -3.9827705286866001e-02  -3.1296797337772499e-02  -4.5588095867954127e-02  -5.7069435592671689e-03  -6.4808619869084535e-03  -2.8909618020675917e-02  -4.0981843230078474e-02  -4.5450617390914341e-02  -4.5450617390914348e-02  -4.0981843230078509e-02  -2.8909618020675851e-02  -6.4808619869084700e-03  -7.4568270084694179e-03  -6.8481086378092883e-03  -2.3044584890146259e-02  -5.8276658826448120e-02  -8.8304562684259000e-02  -5.4497228886728297e-02  -9.1636708322975532e-02  -8.3813452234646188e-02  -7.3739151315724602e-02  -7.8271276337817261e-02  -1.9104252522129060e-03  -2.2164339566975357e-03  -1.0171316838855136e-02  -1.3794753227845001e-02  -1.0819738397183785e-02  -2.6498332486138733e-03  -4.3578495436334104e-03  -3.5906926756603473e-02  -3.6620835886742469e-02  -1.4926831919668083e-02  -3.3639234048201639e-03  -3.0376554397597084e-02  -3.6370404818585243e-02  -3.3291968506065320e-02  -4.8365587217425288e-02  -5.8380942484543849e-03  -6.1582565663957627e-03  -2.6400077609025331e-02  -3.7537714912727449e-02  -4.2339040624831958e-02  -4.2339040624831986e-02  -3.7537714912727491e-02  -2.6400077609025248e-02  -6.1582565663957775e-03  -7.6281915911316387e-03  -7.2653351558206371e-03  -2.4513677425777872e-02  -5.3217870769257242e-02  -9.1906817869564603e-02  -5.9267612513443549e-02  -8.5651686957037593e-02  -9.0380682515767211e-02  -6.7338119658534201e-02  -1.1586598966680760e-02  -2.1014757057589042e-03  -2.4104482299498872e-03  -1.0819738397183806e-02  -1.4674168895105408e-02  -1.1766837982789271e-02  -2.9148275703663419e-03  -4.6233550265734665e-03  -3.7371697196154262e-02  -3.4797917857530634e-02  -1.3904931975097914e-02  -3.7003297056898026e-03  -3.1074634903038367e-02  -3.3115005666814107e-02  -3.6206161845923929e-02  -5.0368652195029132e-02  -5.8638918948541105e-03  -5.7560455114449250e-03  -2.4037090705695690e-02  -3.4967860237934516e-02  -4.0552116479498773e-02  -4.0552116479498815e-02  -3.4967860237934571e-02  -2.4037090705695631e-02  -5.7560455114449389e-03  -7.6618994041546002e-03  -7.5662296396559357e-03  -2.6659468098282842e-02  -4.8454508573388046e-02  -9.4018919098430714e-02  -6.5153562832316658e-02  -7.8960419783493024e-02  -9.5887198176652796e-02  -1.2165274541620976e-02  -1.2066458964975942e-02  -2.2950613341521128e-03  -2.6498332486138742e-03  -1.1766837982789297e-02  -1.5958663840313761e-02  -1.2935419284443975e-02  -3.1833382770668234e-03  -4.8148316748590769e-03  -3.8230532366411524e-02  -3.2525179282794490e-02  -1.3318072700092396e-02  -4.0412000042971000e-03  -3.1211948966346121e-02  -3.0332009106459158e-02  -3.9801846922893215e-02  -5.1420664428561476e-02  -5.7802558972675959e-03  -5.3063726591229491e-03  -2.2017005266847977e-02  -3.3492037620141121e-02  -4.0248096047127327e-02  -4.0248096047127362e-02  -3.3492037620141163e-02  -2.2017005266847932e-02  -5.3063726591229647e-03  -7.5526186378027651e-03  -7.7242597992046276e-03  -2.9307057533718289e-02  -4.4382374869102868e-02  -9.4434374335459009e-02  -7.1669189504877287e-02  -7.2106148508588847e-02  -9.5412394529102267e-03  -1.2219031030917697e-02  -1.2318482036735313e-02  -2.4748916106628249e-03  -2.9148275703663419e-03  -1.2935419284444003e-02  -1.7543541289162849e-02  -1.4229014895284062e-02  -3.4327697820438138e-03  -4.9153954502155804e-03  -3.8399467247160139e-02  -2.9984252510881881e-02  -1.3218226709990167e-02  -4.3578495436334070e-03  -3.0766776624285983e-02  -2.8255461410912917e-02  -4.3782196794095452e-02  -2.9185956103292592e-02  -5.5922813031978394e-03  -4.8457454513257756e-03  -2.0509707765082218e-02  -3.3240946810530130e-02  -4.1462988497910462e-02  -4.1462988497910511e-02  -3.3240946810530150e-02  -2.0509707765082159e-02  -4.8457454513257895e-03  -7.3070066012706570e-03  -3.9720727256894850e-02  -3.2237884912297961e-02  -4.1343930632394568e-02  -9.3087468006756935e-02  -7.8271276337817039e-02  -1.5021964197616201e-03  -8.7129986242978075e-03  -1.2044752434358277e-02  -2.5892561988022219e-03  -2.6256763694605008e-03  -3.1833382770668243e-03  -1.4229014895284093e-02  -1.9297968224325661e-02  -1.5539776081992690e-02  -3.6419140376400421e-03  -2.3471279163100961e-02  -3.7851780180687265e-02  -2.7381426927528339e-02  -1.3617220089053465e-02  -4.6233550265734630e-03  -2.9766237470038686e-02  -2.7062936368125866e-02  -4.7815364560724154e-02  -3.0376554397597101e-02  -5.3139077990115597e-03  -4.4120182021893011e-03  -1.9644093157894869e-02  -3.4244327822384971e-02  -4.4106254462458382e-02  -4.4106254462458430e-02  -3.4244327822384998e-02  -1.9644093157894824e-02  -4.4120182021893089e-03  -6.9432772174242274e-03  -4.1341076097043336e-02  -3.5207603378094553e-02  -3.9599005220299230e-02  -9.0060252720350023e-02  -1.6503567255833922e-03  -1.5979614577453565e-03  -7.9331258548743476e-03  -1.1653055684290609e-02  -2.6948811097320226e-03  -2.7344189833885596e-03  -3.4327697820438151e-03  -1.5539776081992723e-02  -2.1075675811037503e-02  -1.6757400285823263e-02  -3.7927442224870958e-03  -2.4428755589017366e-02  -3.6620835886742469e-02  -2.4930602570780711e-02  -1.4485318016798511e-02  -4.8148316748590743e-03  -2.8284528775192202e-02  -2.6860044723246160e-02  -5.1561952986254066e-02  -3.1074634903038384e-02  -4.9668432623674085e-03  -4.0412306624117954e-03  -1.9496820802864336e-02  -3.6427404090905578e-02  -4.7967070111649822e-02  -4.7967070111649864e-02  -3.6427404090905606e-02  -1.9496820802864287e-02  -4.0412306624118041e-03  -6.4897945110239733e-03  -4.2291131159891172e-02  -3.7966306579855072e-02  -3.9302130291597515e-02  -1.4155631706956287e-03  -1.6848264878133500e-03  -1.7378380960602071e-03  -7.2664232068629271e-03  -1.1072987949954906e-02  -2.7568118982790797e-03  -2.7915307403398749e-03  -3.6419140376400430e-03  -1.6757400285823298e-02  -2.2727067236770020e-02  -1.7778358354971689e-02  -3.8719604243673063e-03  -2.4990150335296779e-02  -3.4797917857530634e-02  -2.2835426084925867e-02  -1.5753282008852561e-02  -4.9153954502155770e-03  -2.6437195843411542e-02  -2.7670817623503596e-02  -5.4703406377858213e-02  -3.1211948966346135e-02  -4.5788243399346191e-03  -3.7645655661516552e-03  -2.0085334117380775e-02  -3.9616055983650054e-02  -5.2730747601696049e-02  -5.2730747601696076e-02  -3.9616055983650110e-02  -2.0085334117380733e-02  -3.7645655661516625e-03  -5.9827998385612279e-03  -4.2478009206232403e-02  -4.0279434296405396e-02  -3.5000460007435300e-03  -1.3049767746459453e-03  -2.5892561988022232e-03  -1.9104252522129069e-03  -6.7689594776349921e-03  -1.0349783563000321e-02  -2.7689938288056703e-03  -3.5913978611925679e-03  -3.7927442224870971e-03  -1.7778358354971730e-02  -2.4111732058740603e-02  -1.8514650603839587e-02  -4.5592255013051919e-03  -2.5100577991033331e-02  -3.2525179282794490e-02  -2.1272098998776093e-02  -1.7317762697901262e-02  -5.4832619270971539e-03  -2.4371873524700872e-02  -2.9434832545850696e-02  -5.6968952684130311e-02  -3.0766776624285994e-02  -4.1813529962905363e-03  -3.6056816375701225e-03  -2.1365774384288255e-02  -4.3550382464180547e-02  -5.8004041196121854e-02  -5.8004041196121882e-02  -4.3550382464180581e-02  -2.1365774384288209e-02  -3.6056816375701346e-03  -5.4634544096818817e-03  -4.1872150377462031e-02  -5.5768174253782972e-03  -3.8476405131675591e-03  -1.1916964141134318e-03  -2.6948811097320230e-03  -2.1014757057589051e-03  -6.4832747537758072e-03  -9.5412394529102024e-03  -2.7294999968361057e-03  -3.7379036721576719e-03  -3.8719604243673076e-03  -1.8514650603839628e-02  -2.5110321527304531e-02  -1.8901352214583469e-02  -4.7452124220691595e-03  -2.4742571411457703e-02  -2.9984252510881881e-02  -2.0374307580693345e-02  -1.9049610836949671e-02  -5.7069435592671698e-03  -2.2256238462551956e-02  -3.2011393705018674e-02  -5.8158820440034738e-02  -2.9766237470038703e-02  -3.8070934007409063e-03  -3.5786497342907451e-03  -2.3236015172251004e-02  -4.7905601446051542e-02  -6.3347309611514649e-02  -6.3347309611514677e-02  -4.7905601446051611e-02  -2.3236015172250941e-02  -3.5786497342907538e-03  -4.9744379981315158e-03  -9.0664963180903915e-04  -5.4972759370471970e-03  -4.2324205323131083e-03  -1.0850314617978276e-03  -2.7568118982790810e-03  -2.2950613341521137e-03  -6.4346694486785427e-03  -8.7129986242977814e-03  -2.6407363394760205e-03  -3.8238040560720824e-03  -1.7531758715791844e-02  -1.8901352214583510e-02  -2.5634781966157844e-02  -3.5913978611925661e-03  -4.8542616658598286e-03  -2.3937940111395453e-02  -2.7381426927528339e-02  -2.0221560786254571e-02  -2.0804440014565703e-02  -5.8380942484543910e-03  -2.0264153409498473e-02  -3.5190490432474811e-02  -4.7694718956228080e-02  -2.8284528775192212e-02  -3.4871439510619742e-03  -3.6866716029797927e-03  -2.5543616661705772e-02  -5.2318612709552903e-02  -6.8310908637880932e-02  -6.8310908637880988e-02  -5.2318612709552972e-02  -2.5543616661705713e-02  -3.6866716029798022e-03  -1.6712243501196386e-03  -9.6444855562880926e-04  -5.3185038841966712e-03  -4.6223064520631374e-03  -9.9384504146493406e-04  -2.7689938288056712e-03  -2.4748916106628262e-03  -6.6289005329845168e-03  -7.9331258548743250e-03  -2.5092853289498448e-03  -3.8407008619032786e-03  -1.8246941112054878e-02  -2.3777283607034995e-02  -1.7531758715791799e-02  -3.7379036721576701e-03  -4.8757119064106310e-03  -2.2746353367001901e-02  -2.4930602570780711e-02  -2.0831950443283499e-02  -2.2434578671340237e-02  -5.8638918948541157e-03  -1.8561146929458663e-02  -3.8709685517361155e-02  -4.9640355098338675e-02  -2.6437195843411553e-02  -3.2484119663061832e-03  -3.9216969574863278e-03  -2.8098084334686541e-02  -5.6418054606904917e-02  -7.2472805602513804e-02  -7.2472805602513860e-02  -5.6418054606904987e-02  -2.8098084334686479e-02  -3.5057599720860285e-04  -1.6473878745809642e-03  -1.0488710059545594e-03  -5.0537585176812982e-03  -4.9844887759176127e-03  -9.2580580860895489e-04  -2.7294999968361078e-03  -2.6256763694605021e-03  -7.0514930135553381e-03  -7.2664232068629072e-03  -2.3453976622948205e-03  -3.7859213990863484e-03  -1.8666272208911185e-02  -2.4747243035656803e-02  -1.8246941112054837e-02  -3.8238040560720815e-03  -4.8061702032978996e-03  -2.1260732447284200e-02  -2.2835426084925867e-02  -2.2159987509030820e-02  -2.3801423392584224e-02  -5.7802558972675994e-03  -1.7290439580407574e-02  -4.2275579129762313e-02  -5.0781135047366484e-02  -2.4371873524700889e-02  -3.1113123605778161e-03  -4.2649804479884985e-03  -3.0686448928990227e-02  -5.9855369889353943e-02  -7.5474273114496893e-02  -7.5474273114496948e-02  -5.9855369889354020e-02  -4.7313965908205485e-04  -3.8539219470755192e-04  -1.5938146292950269e-03  -1.1530358671686771e-03  -4.7236849777194763e-03  -5.2881727572961622e-03  -8.8673206652886639e-04  -2.6407363394760218e-03  -2.7344189833885609e-03  -7.6687414040318208e-03  -6.7689594776349721e-03  -2.1621708871526891e-03  -3.6628027948547152e-03  -1.8748755613521174e-02  -2.5315956909537637e-02  -1.8666272208911157e-02  -3.8407008619032786e-03  -4.6498729892900954e-03  -1.9599804961041169e-02  -2.1272098998776093e-02  -2.4099749286662048e-02  -2.4787161400901623e-02  -5.5922813031978472e-03  -1.6560694562247329e-02  -4.5588095867954093e-02  -5.1005529123579890e-02  -2.2256238462551970e-02  -3.0879867585815860e-03  -4.6885416808984844e-03  -3.3090895604952750e-02  -6.2334285210032467e-02  -7.7050647608814762e-02  -7.7050647608814818e-02  -5.5161735955773852e-04  -4.3617711950118444e-04  -4.2393301356800098e-04  -1.5144774609150119e-03  -1.2683