<?xml version="1.0"?>
<VTKFile type="UnstructuredGrid"  version="0.1"  >
<UnstructuredGrid>
<Piece  NumberOfPoints="1089" NumberOfCells="2048">
<Points>
<DataArray  type="Float64"  NumberOfComponents="3"  format="ascii">0 0 0  0.03125 0 0  0.0625 0 0  0.09375 0 0  0.125 0 0  0.15625 0 0  0.1875 0 0  0.21875 0 0  0.25 0 0  0.28125 0 0  0.3125 0 0  0.34375 0 0  0.375 0 0  0.40625 0 0  0.4375 0 0  0.46875 0 0  0.5 0 0  0.53125 0 0  0.5625 0 0  0.59375 0 0  0.625 0 0  0.65625 0 0  0.6875 0 0  0.71875 0 0  0.75 0 0  0.78125 0 0  0.8125 0 0  0.84375 0 0  0.875 0 0  0.90625 0 0  0.9375 0 0  0.96875 0 0  1 0 0  0 0.03125 0  0.03125 0.03125 0  0.0625 0.03125 0  0.09375 0.03125 0  0.125 0.03125 0  0.15625 0.03125 0  0.1875 0.03125 0  0.21875 0.03125 0  0.25 0.03125 0  0.28125 0.03125 0  0.3125 0.03125 0  0.34375 0.03125 0  0.375 0.03125 0  0.40625 0.03125 0  0.4375 0.03125 0  0.46875 0.03125 0  0.5 0.03125 0  0.53125 0.03125 0  0.5625 0.03125 0  0.59375 0.03125 0  0.625 0.03125 0  0.65625 0.03125 0  0.6875 0.03125 0  0.71875 0.03125 0  0.75 0.03125 0  0.78125 0.03125 0  0.8125 0.03125 0  0.84375 0.03125 0  0.875 0.03125 0  0.90625 0.03125 0  0.9375 0.03125 0  0.96875 0.03125 0  1 0.03125 0  0 0.0625 0  0.03125 0.0625 0  0.0625 0.0625 0  0.09375 0.0625 0  0.125 0.0625 0  0.15625 0.0625 0  0.1875 0.0625 0  0.21875 0.0625 0  0.25 0.0625 0  0.28125 0.0625 0  0.3125 0.0625 0  0.34375 0.0625 0  0.375 0.0625 0  0.40625 0.0625 0  0.4375 0.0625 0  0.46875 0.0625 0  0.5 0.0625 0  0.53125 0.0625 0  0.5625 0.0625 0  0.59375 0.0625 0  0.625 0.0625 0  0.65625 0.0625 0  0.6875 0.0625 0  0.71875 0.0625 0  0.75 0.0625 0  0.78125 0.0625 0  0.8125 0.0625 0  0.84375 0.0625 0  0.875 0.0625 0  0.90625 0.0625 0  0.9375 0.0625 0  0.96875 0.0625 0  1 0.0625 0  0 0.09375 0  0.03125 0.09375 0  0.0625 0.09375 0  0.09375 0.09375 0  0.125 0.09375 0  0.15625 0.09375 0  0.1875 0.09375 0  0.21875 0.09375 0  0.25 0.09375 0  0.28125 0.09375 0  0.3125 0.09375 0  0.34375 0.09375 0  0.375 0.09375 0  0.40625 0.09375 0  0.4375 0.09375 0  0.46875 0.09375 0  0.5 0.09375 0  0.53125 0.09375 0  0.5625 0.09375 0  0.59375 0.09375 0  0.625 0.09375 0  0.65625 0.09375 0  0.6875 0.09375 0  0.71875 0.09375 0  0.75 0.09375 0  0.78125 0.09375 0  0.8125 0.09375 0  0.84375 0.09375 0  0.875 0.09375 0  0.90625 0.09375 0  0.9375 0.09375 0  0.96875 0.09375 0  1 0.09375 0  0 0.125 0  0.03125 0.125 0  0.0625 0.125 0  0.09375 0.125 0  0.125 0.125 0  0.15625 0.125 0  0.1875 0.125 0  0.21875 0.125 0  0.25 0.125 0  0.28125 0.125 0  0.3125 0.125 0  0.34375 0.125 0  0.375 0.125 0  0.40625 0.125 0  0.4375 0.125 0  0.46875 0.125 0  0.5 0.125 0  0.53125 0.125 0  0.5625 0.125 0  0.59375 0.125 0  0.625 0.125 0  0.65625 0.125 0  0.6875 0.125 0  0.71875 0.125 0  0.75 0.125 0  0.78125 0.125 0  0.8125 0.125 0  0.84375 0.125 0  0.875 0.125 0  0.90625 0.125 0  0.9375 0.125 0  0.96875 0.125 0  1 0.125 0  0 0.15625 0  0.03125 0.15625 0  0.0625 0.15625 0  0.09375 0.15625 0  0.125 0.15625 0  0.15625 0.15625 0  0.1875 0.15625 0  0.21875 0.15625 0  0.25 0.15625 0  0.28125 0.15625 0  0.3125 0.15625 0  0.34375 0.15625 0  0.375 0.15625 0  0.40625 0.15625 0  0.4375 0.15625 0  0.46875 0.15625 0  0.5 0.15625 0  0.53125 0.15625 0  0.5625 0.15625 0  0.59375 0.15625 0  0.625 0.15625 0  0.65625 0.15625 0  0.6875 0.15625 0  0.71875 0.15625 0  0.75 0.15625 0  0.78125 0.15625 0  0.8125 0.15625 0  0.84375 0.15625 0  0.875 0.15625 0  0.90625 0.15625 0  0.9375 0.15625 0  0.96875 0.15625 0  1 0.15625 0  0 0.1875 0  0.03125 0.1875 0  0.0625 0.1875 0  0.09375 0.1875 0  0.125 0.1875 0  0.15625 0.1875 0  0.1875 0.1875 0  0.21875 0.1875 0  0.25 0.1875 0  0.28125 0.1875 0  0.3125 0.1875 0  0.34375 0.1875 0  0.375 0.1875 0  0.40625 0.1875 0  0.4375 0.1875 0  0.46875 0.1875 0  0.5 0.1875 0  0.53125 0.1875 0  0.5625 0.1875 0  0.59375 0.1875 0  0.625 0.1875 0  0.65625 0.1875 0  0.6875 0.1875 0  0.71875 0.1875 0  0.75 0.1875 0  0.78125 0.1875 0  0.8125 0.1875 0  0.84375 0.1875 0  0.875 0.1875 0  0.90625 0.1875 0  0.9375 0.1875 0  0.96875 0.1875 0  1 0.1875 0  0 0.21875 0  0.03125 0.21875 0  0.0625 0.21875 0  0.09375 0.21875 0  0.125 0.21875 0  0.15625 0.21875 0  0.1875 0.21875 0  0.21875 0.21875 0  0.25 0.21875 0  0.28125 0.21875 0  0.3125 0.21875 0  0.34375 0.21875 0  0.375 0.21875 0  0.40625 0.21875 0  0.4375 0.21875 0  0.46875 0.21875 0  0.5 0.21875 0  0.53125 0.21875 0  0.5625 0.21875 0  0.59375 0.21875 0  0.625 0.21875 0  0.65625 0.21875 0  0.6875 0.21875 0  0.71875 0.21875 0  0.75 0.21875 0  0.78125 0.21875 0  0.8125 0.21875 0  0.84375 0.21875 0  0.875 0.21875 0  0.90625 0.21875 0  0.9375 0.21875 0  0.96875 0.21875 0  1 0.21875 0  0 0.25 0  0.03125 0.25 0  0.0625 0.25 0  0.09375 0.25 0  0.125 0.25 0  0.15625 0.25 0  0.1875 0.25 0  0.21875 0.25 0  0.25 0.25 0  0.28125 0.25 0  0.3125 0.25 0  0.34375 0.25 0  0.375 0.25 0  0.40625 0.25 0  0.4375 0.25 0  0.46875 0.25 0  0.5 0.25 0  0.53125 0.25 0  0.5625 0.25 0  0.59375 0.25 0  0.625 0.25 0  0.65625 0.25 0  0.6875 0.25 0  0.71875 0.25 0  0.75 0.25 0  0.78125 0.25 0  0.8125 0.25 0  0.84375 0.25 0  0.875 0.25 0  0.90625 0.25 0  0.9375 0.25 0  0.96875 0.25 0  1 0.25 0  0 0.28125 0  0.03125 0.28125 0  0.0625 0.28125 0  0.09375 0.28125 0  0.125 0.28125 0  0.15625 0.28125 0  0.1875 0.28125 0  0.21875 0.28125 0  0.25 0.28125 0  0.28125 0.28125 0  0.3125 0.28125 0  0.34375 0.28125 0  0.375 0.28125 0  0.40625 0.28125 0  0.4375 0.28125 0  0.46875 0.28125 0  0.5 0.28125 0  0.53125 0.28125 0  0.5625 0.28125 0  0.59375 0.28125 0  0.625 0.28125 0  0.65625 0.28125 0  0.6875 0.28125 0  0.71875 0.28125 0  0.75 0.28125 0  0.78125 0.28125 0  0.8125 0.28125 0  0.84375 0.28125 0  0.875 0.28125 0  0.90625 0.28125 0  0.9375 0.28125 0  0.96875 0.28125 0  1 0.28125 0  0 0.3125 0  0.03125 0.3125 0  0.0625 0.3125 0  0.09375 0.3125 0  0.125 0.3125 0  0.15625 0.3125 0  0.1875 0.3125 0  0.21875 0.3125 0  0.25 0.3125 0  0.28125 0.3125 0  0.3125 0.3125 0  0.34375 0.3125 0  0.375 0.3125 0  0.40625 0.3125 0  0.4375 0.3125 0  0.46875 0.3125 0  0.5 0.3125 0  0.53125 0.3125 0  0.5625 0.3125 0  0.59375 0.3125 0  0.625 0.3125 0  0.65625 0.3125 0  0.6875 0.3125 0  0.71875 0.3125 0  0.75 0.3125 0  0.78125 0.3125 0  0.8125 0.3125 0  0.84375 0.3125 0  0.875 0.3125 0  0.90625 0.3125 0  0.9375 0.3125 0  0.96875 0.3125 0  1 0.3125 0  0 0.34375 0  0.03125 0.34375 0  0.0625 0.34375 0  0.09375 0.34375 0  0.125 0.34375 0  0.15625 0.34375 0  0.1875 0.34375 0  0.21875 0.34375 0  0.25 0.34375 0  0.28125 0.34375 0  0.3125 0.34375 0  0.34375 0.34375 0  0.375 0.34375 0  0.40625 0.34375 0  0.4375 0.34375 0  0.46875 0.34375 0  0.5 0.34375 0  0.53125 0.34375 0  0.5625 0.34375 0  0.59375 0.34375 0  0.625 0.34375 0  0.65625 0.34375 0  0.6875 0.34375 0  0.71875 0.34375 0  0.75 0.34375 0  0.78125 0.34375 0  0.8125 0.34375 0  0.84375 0.34375 0  0.875 0.34375 0  0.90625 0.34375 0  0.9375 0.34375 0  0.96875 0.34375 0  1 0.34375 0  0 0.375 0  0.03125 0.375 0  0.0625 0.375 0  0.09375 0.375 0  0.125 0.375 0  0.15625 0.375 0  0.1875 0.375 0  0.21875 0.375 0  0.25 0.375 0  0.28125 0.375 0  0.3125 0.375 0  0.34375 0.375 0  0.375 0.375 0  0.40625 0.375 0  0.4375 0.375 0  0.46875 0.375 0  0.5 0.375 0  0.53125 0.375 0  0.5625 0.375 0  0.59375 0.375 0  0.625 0.375 0  0.65625 0.375 0  0.6875 0.375 0  0.71875 0.375 0  0.75 0.375 0  0.78125 0.375 0  0.8125 0.375 0  0.84375 0.375 0  0.875 0.375 0  0.90625 0.375 0  0.9375 0.375 0  0.96875 0.375 0  1 0.375 0  0 0.40625 0  0.03125 0.40625 0  0.0625 0.40625 0  0.09375 0.40625 0  0.125 0.40625 0  0.15625 0.40625 0  0.1875 0.40625 0  0.21875 0.40625 0  0.25 0.40625 0  0.28125 0.40625 0  0.3125 0.40625 0  0.34375 0.40625 0  0.375 0.40625 0  0.40625 0.40625 0  0.4375 0.40625 0  0.46875 0.40625 0  0.5 0.40625 0  0.53125 0.40625 0  0.5625 0.40625 0  0.59375 0.40625 0  0.625 0.40625 0  0.65625 0.40625 0  0.6875 0.40625 0  0.71875 0.40625 0  0.75 0.40625 0  0.78125 0.40625 0  0.8125 0.40625 0  0.84375 0.40625 0  0.875 0.40625 0  0.90625 0.40625 0  0.9375 0.40625 0  0.96875 0.40625 0  1 0.40625 0  0 0.4375 0  0.03125 0.4375 0  0.0625 0.4375 0  0.09375 0.4375 0  0.125 0.4375 0  0.15625 0.4375 0  0.1875 0.4375 0  0.21875 0.4375 0  0.25 0.4375 0  0.28125 0.4375 0  0.3125 0.4375 0  0.34375 0.4375 0  0.375 0.4375 0  0.40625 0.4375 0  0.4375 0.4375 0  0.46875 0.4375 0  0.5 0.4375 0  0.53125 0.4375 0  0.5625 0.4375 0  0.59375 0.4375 0  0.625 0.4375 0  0.65625 0.4375 0  0.6875 0.4375 0  0.71875 0.4375 0  0.75 0.4375 0  0.78125 0.4375 0  0.8125 0.4375 0  0.84375 0.4375 0  0.875 0.4375 0  0.90625 0.4375 0  0.9375 0.4375 0  0.96875 0.4375 0  1 0.4375 0  0 0.46875 0  0.03125 0.46875 0  0.0625 0.46875 0  0.09375 0.46875 0  0.125 0.46875 0  0.15625 0.46875 0  0.1875 0.46875 0  0.21875 0.46875 0  0.25 0.46875 0  0.28125 0.46875 0  0.3125 0.46875 0  0.34375 0.46875 0  0.375 0.46875 0  0.40625 0.46875 0  0.4375 0.46875 0  0.46875 0.46875 0  0.5 0.46875 0  0.53125 0.46875 0  0.5625 0.46875 0  0.59375 0.46875 0  0.625 0.46875 0  0.65625 0.46875 0  0.6875 0.46875 0  0.71875 0.46875 0  0.75 0.46875 0  0.78125 0.46875 0  0.8125 0.46875 0  0.84375 0.46875 0  0.875 0.46875 0  0.90625 0.46875 0  0.9375 0.46875 0  0.96875 0.46875 0  1 0.46875 0  0 0.5 0  0.03125 0.5 0  0.0625 0.5 0  0.09375 0.5 0  0.125 0.5 0  0.15625 0.5 0  0.1875 0.5 0  0.21875 0.5 0  0.25 0.5 0  0.28125 0.5 0  0.3125 0.5 0  0.34375 0.5 0  0.375 0.5 0  0.40625 0.5 0  0.4375 0.5 0  0.46875 0.5 0  0.5 0.5 0  0.53125 0.5 0  0.5625 0.5 0  0.59375 0.5 0  0.625 0.5 0  0.65625 0.5 0  0.6875 0.5 0  0.71875 0.5 0  0.75 0.5 0  0.78125 0.5 0  0.8125 0.5 0  0.84375 0.5 0  0.875 0.5 0  0.90625 0.5 0  0.9375 0.5 0  0.96875 0.5 0  1 0.5 0  0 0.53125 0  0.03125 0.53125 0  0.0625 0.53125 0  0.09375 0.53125 0  0.125 0.53125 0  0.15625 0.53125 0  0.1875 0.53125 0  0.21875 0.53125 0  0.25 0.53125 0  0.28125 0.53125 0  0.3125 0.53125 0  0.34375 0.53125 0  0.375 0.53125 0  0.40625 0.53125 0  0.4375 0.53125 0  0.46875 0.53125 0  0.5 0.53125 0  0.53125 0.53125 0  0.5625 0.53125 0  0.59375 0.53125 0  0.625 0.53125 0  0.65625 0.53125 0  0.6875 0.53125 0  0.71875 0.53125 0  0.75 0.53125 0  0.78125 0.531
[...]
<PointData  Scalars="theta_dt"> 
<DataArray  type="Float64"  Name="theta_dt"  format="ascii">-2.5005815286039318e-04  -2.4415453639222963e-04  -2.0064178745443392e-03  -3.3884481449058959e-03  -2.1236513344209699e-03  -3.2387841306986010e-03  -1.4086750044101457e-03  -4.3028893231373947e-04  -3.9918072418177960e-04  -2.9367318389397345e-04  -2.6060361918086878e-03  -2.7933865781002739e-03  -4.3622237007054868e-03  -3.6342814349008962e-03  -3.8822006521249688e-03  -3.0085711454756860e-03  -3.7587886001231178e-03  -2.3027770217962703e-03  -2.9458581743710983e-03  -2.0324501222105536e-03  -3.4136269163862035e-04  -4.6881460480903859e-04  -4.2005776604518263e-04  -3.7595897662434007e-04  -6.3869011929109276e-04  -3.8149510633176743e-04  -4.8686374650237866e-04  -2.5204621905841758e-03  -2.1553940494365683e-03  -3.0916182781996794e-03  -3.4947592076795741e-03  -3.1669799754754802e-03  -2.7288853221145541e-03  -1.7835890145154159e-03  -2.7506500589560861e-04  -2.4232410251692388e-04  -1.8496728233104312e-03  -3.5266749197076725e-03  -2.1481143478910615e-03  -3.4361096547098663e-03  -1.3122362613016791e-03  -4.4784193852870694e-04  -3.6946907019997315e-04  -2.9147150723454453e-04  -2.7546401365843810e-03  -2.9090749248239000e-03  -4.0773160198260576e-03  -3.4027301798435256e-03  -3.5347172305636235e-03  -2.8741754424690641e-03  -3.4325016224081490e-03  -2.1245881922307397e-03  -2.9038417471279345e-03  -2.2357035691633544e-03  -3.6301527567488950e-04  -4.3218994641543976e-04  -4.5875302499034281e-04  -3.8028976735269302e-04  -6.4151239333383090e-04  -3.5537772053200167e-04  -5.3171309881716003e-04  -2.3328601949358062e-03  -2.2921103688523558e-03  -3.2679115596687481e-03  -3.4449138698220598e-03  -2.9601366354472343e-03  -1.0487789229253195e-03  -2.8331724465318958e-04  -3.0040369140568138e-04  -2.4963867765722124e-04  -1.6891093494136276e-03  -3.6077210771570246e-03  -2.2348955395521358e-03  -3.5784164332384643e-03  -1.2568531769167576e-03  -4.5813374854487593e-04  -3.4592905866203441e-04  -3.0026960126967661e-04  -2.8670116428126864e-03  -2.9698345893336233e-03  -3.7587886001231182e-03  -3.2507270220157201e-03  -3.2376583686850643e-03  -2.8210792158581254e-03  -3.1252693294002163e-03  -1.9664517257197834e-03  -2.8094084757709996e-03  -2.4416541205551116e-03  -3.9123159711886669e-04  -3.9467308488987584e-04  -4.9469876731387749e-04  -3.9565300870889872e-04  -6.3236257782859067e-04  -3.4037896240804802e-04  -5.7337565143037079e-04  -2.1842264923217706e-03  -2.4702707033792512e-03  -3.4012212211754597e-03  -3.3328848701040404e-03  -2.3351681234817490e-03  -1.0911483083399416e-03  -2.6139416319864912e-04  -3.2394192024795342e-04  -2.6555314605400187e-04  -1.5379225487509071e-03  -3.6236630453227443e-03  -2.3766546264931991e-03  -3.6531561314512261e-03  -1.2474305109884123e-03  -4.6015817157502313e-04  -3.3047608222196709e-04  -3.1941179159357223e-04  -2.9328981456241770e-03  -3.7628761674222549e-03  -3.4325016224081499e-03  -3.1906745505970026e-03  -3.0160063178478742e-03  -2.8535761223602227e-03  -2.8626206111298813e-03  -1.8411630343357121e-03  -2.6695612757305100e-03  -2.6329707224729258e-03  -4.2361174348116406e-04  -3.5934715348531602e-04  -5.2483868697159248e-04  -4.2074921936727147e-04  -6.1179807324871090e-04  -3.3782713112758315e-04  -6.0830902343296663e-04  -2.0866550403709954e-03  -2.6747217945461356e-03  -3.4793843399452246e-03  -1.1486347167878816e-03  -2.3888323844967964e-03  -1.1603596809388399e-03  -2.4193818133544316e-04  -3.4367834187490353e-04  -2.8879818815681667e-04  -1.4086750044101464e-03  -3.5719791672521226e-03  -2.5613863868241518e-03  -1.8516842857657589e-03  -1.2850843147584564e-03  -4.5359498991728587e-04  -3.2437101546373191e-04  -3.4737131929661873e-04  -2.9458581743710991e-03  -3.4717049017171688e-03  -3.1252693294002167e-03  -3.2274289430176462e-03  -2.8887154196058644e-03  -2.9688571066509893e-03  -2.6666438720882512e-03  -1.7589165497473545e-03  -2.4952055883064794e-03  -2.7933865781002726e-03  -4.5738495341509055e-04  -3.2914749408664113e-04  -5.4657492658424041e-04  -4.5345306412669114e-04  -5.8134388751108156e-04  -3.4802447389868115e-04  -6.3350219424926086e-04  -2.0481071120694340e-03  -2.8879688115898716e-03  -3.0040369140568149e-04  -1.0521030568483392e-03  -2.3993882697807278e-03  -1.2505517029884120e-03  -2.2652355521526007e-04  -3.5791181012735884e-04  -3.1747914417282002e-04  -1.3122362613016802e-03  -3.4558179892829502e-03  -2.7733786356776160e-03  -1.7084010010697409e-03  -1.3670084537033981e-03  -4.3884402808840115e-04  -3.2810754810069624e-04  -3.8186925570526947e-04  -2.9038417471279362e-03  -3.2133004034083064e-03  -2.8626206111298826e-03  -3.3578131238930654e-03  -2.8670586335461123e-03  -3.1571712650754532e-03  -2.5540978565971833e-03  -1.7264231151660286e-03  -2.3002755427061561e-03  -2.9090749248238987e-03  -4.8963814168517285e-04  -3.0661385749364376e-04  -5.5799082683668773e-04  -4.9098294845347586e-04  -5.4337487213082449e-04  -3.7021103786843534e-04  -6.4673367909700468e-04  -2.0716999076751236e-03  -2.1485355574405452e-04  -3.2394192024795353e-04  -9.8007544501070598e-04  -2.3651660782501188e-03  -1.3540531774975937e-03  -2.1640453493000097e-04  -3.6538724546999530e-04  -3.4922837613850634e-04  -1.2568531769167589e-03  -3.2837937095035030e-03  -2.9944912472385649e-03  -1.5812420068322293e-03  -1.4866687534717063e-03  -4.1699917743320727e-04  -3.4136269163862084e-04  -4.2005776604518296e-04  -2.8094084757710001e-03  -3.0085711454756851e-03  -2.6666438720882512e-03  -3.5707987038173959e-03  -2.9536010599448530e-03  -3.4025707433851166e-03  -2.5349497084339616e-03  -1.7463103307540334e-03  -2.1005968603996631e-03  -2.9698345893336225e-03  -5.1755876673088852e-04  -2.9367318389397323e-04  -5.0147016968393320e-04  -5.3012744916025275e-04  -5.0092542864652121e-04  -4.0261724841443466e-04  -2.7318529011918671e-03  -2.4917740063770574e-04  -2.2353337654521134e-04  -3.4367834187490370e-04  -9.3871124659968637e-04  -2.2882506022974367e-03  -1.4620075081531114e-03  -2.1240677471797719e-04  -3.5970559381086624e-04  -3.8139890966513513e-04  -1.2474305109884129e-03  -3.0693209739329329e-03  -3.2056523036947606e-03  -1.4804962121572993e-03  -1.6343119274154973e-03  -3.8976392387390224e-04  -3.6301527567488934e-04  -4.5875302499034313e-04  -2.6695612757305109e-03  -2.8741754424690645e-03  -2.5540978565971846e-03  -3.8483484676705391e-03  -3.1418931594156406e-03  -3.6841833214341368e-03  -2.6114673966318161e-03  -1.8168591316880534e-03  -1.9125791225804813e-03  -4.3265993972443467e-04  -5.3867181790835683e-04  -2.9147150723454442e-04  -4.6266642023175795e-04  -5.6751018398184746e-04  -4.5744188605828078e-04  -4.4260173608299462e-04  -7.9545416032351620e-04  -2.3677380675199010e-04  -2.3771206489959075e-04  -3.5791181012735895e-04  -9.3167370025589705e-04  -2.1743456851299730e-03  -1.5651031676422471e-03  -2.1485355574405441e-04  -3.3187158376879282e-04  -4.1128354514974823e-04  -1.2850843147584571e-03  -2.8295399794470810e-03  -3.3884481449058959e-03  -1.4143610537679962e-03  -1.7977499026027976e-03  -3.5931484993379994e-04  -3.9123159711886691e-04  -4.9469876731387771e-04  -2.4952055883064803e-03  -2.8210792158581276e-03  -2.5349497084339616e-03  -4.1668556832276538e-03  -3.4169169723826708e-03  -3.9779114785606362e-03  -2.7779484713713084e-03  -1.9321022323388508e-03  -1.7518453098460860e-03  -3.9918072418177949e-04  -5.5105098013954676e-04  -3.0026960126967634e-04  -4.2822942527138215e-04  -5.9987130479251119e-04  -4.1649771908277921e-04  -7.1107681277371654e-04  -8.7500287751557826e-04  -2.2130952046062161e-04  -2.5618886321571844e-04  -3.6538724546999546e-04  -9.5979635588931591e-04  -2.0323337597717263e-03  -1.6543500113444247e-03  -2.2353337654521131e-04  -3.0716985578945730e-04  -4.3634132541199111e-04  -1.3670084537033996e-03  -2.5839177467449764e-03  -3.5266749197076720e-03  -1.3882327827129620e-03  -1.9633566443964224e-03  -3.2812401455956076e-04  -4.2361174348116423e-04  -5.2483868697159269e-04  -2.3002755427061566e-03  -2.8535761223602235e-03  -2.6114673966318156e-03  -4.4990657645571823e-03  -3.7562558235739014e-03  -4.2584198924946227e-03  -3.0211145951247235e-03  -2.0822799832584150e-03  -1.6319129199952685e-03  -3.6946907019997315e-04  -5.5348599021798534e-04  -3.1941179159357202e-04  -4.0094561067137441e-04  -6.2434217529476715e-04  -8.2212522388991024e-04  -7.5618030774241864e-04  -9.5560717925721923e-04  -2.0402041405698690e-04  -2.7739224491700519e-04  -1.3829752719918111e-03  -1.0209833839431952e-03  -1.8735641119623594e-03  -1.7218367948754658e-03  -2.3771206489959059e-04  -2.8759911893325114e-04  -4.5441243914177753e-04  -1.4866687534717076e-03  -2.3526394950192289e-03  -3.6077210771570225e-03  -1.4042242765672896e-03  -2.1171960921693481e-03  -2.9875467858430895e-04  -4.5738495341509099e-04  -5.4657492658424073e-04  -2.1005968603996649e-03  -2.9688571066509885e-03  -2.7779484713713093e-03  -4.8163241572093231e-03  -4.1318969945107536e-03  -4.5012476768995589e-03  -3.3211457531284860e-03  -2.2546191581147451e-03  -1.5630378449632096e-03  -3.4592905866203419e-04  -5.4559168490470674e-04  -3.4737131929661862e-04  -3.8303499310308759e-04  -9.0125388183842333e-04  -7.4853941229802818e-04  -8.1495642010628074e-04  -1.0304840902679376e-03  -1.8631013253367094e-04  -2.9950784172420685e-04  -1.2759606793057749e-03  -1.1103545779911372e-03  -1.7109267208551822e-03  -1.7614061510414535e-03  -2.5618886321571811e-04  -2.7475179576748722e-04  -4.6390341069280110e-04  -1.6343119274154982e-03  -2.1549228559743774e-03  -3.6236630453227434e-03  -1.4609532194187532e-03  -2.2461879642617331e-03  -2.7364723178947755e-04  -4.8963814168517317e-04  -5.5799082683668795e-04  -1.9125791225804818e-03  -3.1571712650754549e-03  -3.0211145951247243e-03  -5.0909653043006205e-03  -4.5125227966298954e-03  -4.6848694773090503e-03  -3.6532741113003589e-03  -2.4343727351102944e-03  -1.5513197034038439e-03  -3.3047608222196682e-04  -5.2784897985486969e-04  -3.8186925570526931e-04  -2.5755305597347135e-04  -8.3151487852801498e-04  -6.8563190049883275e-04  -8.8240600331036410e-04  -1.0932671609795793e-03  -1.6963410568047091e-04  -3.2062808788746444e-04  -1.1809889036128679e-03  -1.2206254595945893e-03  -1.5577871167293449e-03  -1.7691895356729869e-03  -2.7739224491700514e-04  -2.6967615445684353e-04  -1.8516842857657589e-03  -1.7977499026027987e-03  -2.0073955334370570e-03  -3.5719791672521209e-03  -1.5536212617425149e-03  -2.3392140330676741e-03  -2.5491317673329451e-04  -5.1755876673088884e-04  -2.3027770217962720e-03  -1.7518453098460866e-03  -3.4025707433851158e-03  -3.3211457531284868e-03  -5.2986437708278820e-03  -4.8661029864938178e-03  -4.7925319860267837e-03  -3.9898097003583932e-03  -2.6060361918086878e-03  -1.5981464301689974e-03  -3.2437101546373197e-04  -5.0157362598107086e-04  -1.4952376864952121e-04  -2.4917740063770585e-04  -7.6962390821077697e-04  -6.3869312575507006e-04  -9.5275741272090795e-04  -1.1385449150049369e-03  -1.5537799661083720e-04  -3.3891125633145168e-04  -1.1057444659602705e-03  -1.3426930711879837e-03  -1.4268701472067455e-03  -1.7439557942621879e-03  -2.9950784172420679e-04  -2.7278263963739666e-04  -1.7084010010697407e-03  -1.9633566443964241e-03  -1.9226731709320176e-03  -3.4558179892829489e-03  -1.6743805792175891e-03  -2.3880714408479956e-03  -2.4415453639222941e-04  -5.3867181790835726e-04  -2.1245881922307397e-03  -1.6319129199952693e-03  -3.6841833214341386e-03  -3.6532741113003593e-03  -5.4204113641262621e-03  -5.1625742185841027e-03  -4.8137094525549486e-03  -4.3024325357327005e-03  -2.7546401365843819e-03  -1.7000282823524766e-03  -3.2810754810069602e-04  -1.5768523397091853e-04  -1.5571630846000214e-04  -2.3677380675199024e-04  -7.2058880042936090e-04  -6.1173700792559150e-04  -1.0199425354031487e-03  -1.1623248480945390e-03  -1.4474072495275511e-04  -3.5273664420912726e-04  -1.0563498205745745e-03  -1.4663804786668466e-03  -1.3291857536136102e-03  -1.6872421489965859e-03  -3.2062808788746428e-04  -2.8380272455765556e-04  -1.5812420068322302e-03  -2.1171960921693499e-03  -1.9082588325575630e-03  -3.2837937095035021e-03  -1.8129601024987339e-03  -3.5970559381086608e-04  -2.4232410251692388e-04  -5.5105098013954698e-04  -1.9664517257197839e-03  -1.5630378449632096e-03  -3.9779114785606362e-03  -3.9898097003583941e-03  -5.4443633336837575e-03  -5.3763826763422798e-03  -4.7450520831192377e-03  -4.5645616929647550e-03  -2.8670116428126864e-03  -1.8488392815308604e-03  -5.1961345196414085e-04  -1.5543618810099141e-04  -1.5896863811984931e-04  -2.2130952046062161e-04  -6.8839942091010421e-04  -6.0715079724676837e-04  -1.0781026962949417e-03  -2.0424227999880348e-04  -1.3863192578267161e-04  -3.6084284913461527e-04  -1.0368352882934584e-03  -1.5812791975047874e-03  -1.2730873139297414e-03  -1.6032543300793965e-03  -3.3891125633145168e-04  -3.0180428856486756e-04  -1.4804962121572993e-03  -2.2461879642617349e-03  -1.9658597994977119e-03  -3.0693209739329316e-03  -1.9575016150648141e-03  -3.3187158376879255e-04  -2.4963867765722108e-04  -5.5348599021798567e-04  -1.8411630343357127e-03  -1.5513197034038449e-03  -4.2584198924946236e-03  -4.3024325357327014e-03  -5.3667110224200325e-03  -5.4886751459871522e-03  -4.5907424374881751e-03  -4.7536034102541010e-03  -2.9328981456241744e-03  -4.7683197771061054e-04  -5.3046622813249331e-04  -1.5038138518545867e-04  -2.0424227999880348e-04  -2.0402041405698695e-04  -6.7568223910157690e-04  -6.2547769944851185e-04  -1.1220823153538866e-03  -1.8843801737315256e-04  -1.3759259808104001e-04  -3.6243735854670780e-04  -1.0487789229253199e-03  -1.6776199024311263e-03  -1.2635429401897610e-03  -1.4985418017033423e-03  -3.5273664420912716e-04  -3.2526282430688343e-04  -1.4143610537679977e-03  -2.3392140330676758e-03  -2.0911833829472524e-03  -2.8295399794470801e-03  -2.0955377871300957e-03  -3.0716985578945735e-04  -2.6555314605400171e-04  -5.4559168490470695e-04  -1.7589165497473567e-03  -1.5981464301689980e-03  -4.5012476768995632e-03  -4.5645616929647559e-03  -5.1921849557789333e-03  -3.7628761674222541e-03  -4.3622237007054868e-03  -4.8528883568034935e-03  -3.2886505319482801e-04  -4.4568889513171649e-04  -1.2326253063500587e-04  -1.4289567570683760e-04  -1.8843801737315256e-04  -1.8631013253367099e-04  -6.8346563718050385e-04  -6.6535190954360103e-04  -1.1478687748580263e-03  -1.7441227707548447e-04  -1.4174584320589181e-04  -3.5726795730462926e-04  -1.0911483083399422e-03  -1.7470986757826112e-03  -1.3016830991050916e-03  -1.3814729625227272e-03  -3.6084284913461511e-04  -3.5218308824985697e-04  -1.3882327827129627e-03  -2.3880714408479973e-03  -2.2742339191718559e-03  -2.5839177467449760e-03  -2.2150315925395783e-03  -2.8759911893325087e-04  -2.8879818815681635e-04  -5.2784897985486991e-04  -1.7264231151660288e-03  -1.7000282823524772e-03  -4.6848694773090503e-03  -4.7536034102541019e-03  -4.9337275137870647e-03  -3.4717049017171696e-03  -4.0773160198260584e-03  -8.3665938310503236e-05  -3.1417434192981662e-04  -4.1087085967254271e-04  -1.1372447903242208e-04  -1.3356280367490827e-04  -1.7441227707548453e-04  -1.6963410568047096e-04  -7.1107681277371654e-04  -7.2359310675910733e-04  -1.1529410315751752e-03  -1.6329993413296697e-04  -1.5078214224114228e-04  -3.4564956177992305e-04  -1.1603596809388410e-03  -1.7835890145154164e-03  -1.3846654107314003e-03  -1.2615522418624266e-03  -3.6243735854670758e-04  -3.8026151987428577e-04  -1.4042242765672918e-03  -2.8326170173765914e-03  -2.5000913022190530e-03  -2.3526394950192284e-03  -2.3053905592486015e-03  -2.7475179576748706e-04  -3.1747914417281980e-04  -5.0157362598107096e-04  -1.7463103307540345e-03  -1.8488392815308602e-03  -4.7925319860267854e-03  -4.8528883568034944e-03  -4.6114934972654557e-03  -3.2133004034083056e-03  -1.3949531929851423e-04  -8.3038692263979810e-05  -3.0837042620220919e-04  -3.7520463172098576e-04  -1.0525978581057735e-04  -1.2312863202473679e-04  -1.6329993413296707e-04  -1.5537799661083729e-04  -7.5618030774241864e-04  -7.9545416032351620e-04  -1.1364967698010398e-03  -1.5600517247119335e-04  -1.6398077045108722e-04  -3.2844376069153563e-04  -1.2505517029884124e-03  -1.8756015554612167e-03  -1.5058713020907801e-03  -1.1486347167878816e-03  -3.5726795730462894e-04  -4.0707623317169173e-04  -1.4609532194187539e-03  -2.6134291819256300e-03  -2.7501108078982648e-03  -2.1549228559743761e-03  -2.3583705050902182e-03  -2.6967615445684326e-04  -3.4922837613850607e-04  -4.6881460480903875e-04  -1.8168591316880547e-03  -2.0324501222105549e-03  -4.8137094525549503e-03  -4.2558582392696522e-03  -4.2512351514520921e-03  -5.3132237973198736e-05  -1.4744975784033532e-04  -8.5545222765106866e-05  -3.1192264297512829e-04  -3.4162125958263221e-04  -9.8553360909784402e-05  -1.1244027641670548e-04  -1.5600517247119338e-04  -1.4474072495275516e-04  -8.1495642010628074e-04  -8.7500287751557826e-04  -1.0995377626633219e-03  -1.5312320296174210e-04  -1.8026593240031731e-04  -3.0699228168031294e-04  -1.3540531774975937e-03  -1.7304675530217509e-03  -1.6554215082630417e-03  -1.0521030568483385e-03  -3.4564956177992299e-04  -4.3028893231373953e-04  -1.5536212617425172e-03  -2.4189075057638042e-03  -3.0034479877852354e-03  -2.0073955334370566e-03  -2.3687917839837476e-03  -2.7278263963739649e-04  -3.8139890966513496e-04  -4.3218994641543997e-04  -1.9321022323388519e-03  -2.2357035691633552e-03  -4.7450520831192368e-03  -3.9265400329151628e-03  -2.9195964626495158e-05  -1.2326253063500587e-04  -1.5346475455858640e-04  -9.0998731640282808e-05  -3.2452393614652240e-04  -3.1291129045478883e-04  -9.4150889576156835e-05  -1.0237610522318567e-04  -1.5312320296174216e-04  -1.3863192578267159e-04  -8.8240600331036410e-04  -9.5560717925721923e-04  -1.0448047899491815e-03  -1.5488707771647357e-04  -1.9829327374962157e-04  -2.8300948052463503e-04  -1.4620075081531122e-03  -1.6016661103480999e-03  -1.8209705291405182e-03  -9.8007544501070533e-04  -3.2844376069153557e-04  -4.4784193852870715e-04  -1.6743805792175917e-03  -2.2647914641582990e-03  -3.2387841306986010e-03  -1.9226731709320170e-03  -2.3350059865167006e-03  -2.8380272455765546e-04  -4.1128354514974796e-04  -3.9467308488987617e-04  -2.0822799832584163e-03  -2.4416541205551116e-03  -4.5907424374881777e-03  -5.1292669775266983e-05  -2.7963745535853355e-05  -1.1372447903242208e-04  -1.5699151246626215e-04  -9.8964253343614299e-05  -3.4510844046204428e-04  -2.9148919418600189e-04  -9.2411588316153410e-05  -9.3772381836715508e-05  -1.5488707771647365e-04  -1.3759259808104006e-04  -9.5275741272090795e-04  -1.0304840902679376e-03  -9.7656599017648875e-04  -1.6114432616804353e-04  -2.1655983181630378e-04  -2.5844244101035053e-04  -1.5651031676422475e-03  -1.4996190331810913e-03  -1.9887163294860315e-03  -9.3871124659968593e-04  -3.0699228168031283e-04  -4.5813374854487658e-04  -1.8129601024987352e-03  -2.1636210991341342e-03  -3.4361096547098676e-03  -1.9082588325575632e-03  -2.2590713202550509e-03  -3.0180428856486734e-04  -4.3634132541199089e-04  -3.5934715348531624e-04  -2.2546191581147464e-03  -2.6329707224729266e-03  -3.1468140694375771e-05  -5.2471421399742893e-05  -2.7754100497650877e-05  -1.0525978581057739e-04  -1.5768523397091851e-04  -1.0879253313795835e-04  -3.7193290582649276e-04  -2.7918685876441966e-04  -9.3476106720436048e-05  -8.7352667840010656e-05  -1.6114432616804353e-04  -1.4174584320589183e-04  -1.0199425354031487e-03  -1.0932671609795793e-03  -9.0027486054414880e-04  -1.7136568646835225e-04  -2.3352844779929528e-04  -2.3531008085534745e-04  -1.6543500113444260e-03  -1.4326296403892472e-03  -2.1445428436236017e-03  -9.3167370025589640e-04  -2.8300948052463492e-04  -4.6015817157502351e-04  -1.9575016150648163e-03  -2.1236513344209717e-03  -3.5784164332384651e-03  -1.9658597994977110e-03  -2.1466188942180207e-03  -3.2526282430688321e-04  -4.5441243914177726e-04  -3.2914749408664119e-04  -2.4343727351102944e-03  -4.3682751978009863e-05  -3.0886812392475613e-05  -5.2703284593064914e-05  -2.8591860553018261e-05  -9.8553