<?xml version="1.0"?>
<VTKFile type="UnstructuredGrid"  version="0.1"  >
<UnstructuredGrid>
<Piece  NumberOfPoints="1089" NumberOfCells="2048">
<Points>
<DataArray  type="Float64"  NumberOfComponents="3"  format="ascii">0 0 0  0.03125 0 0  0.0625 0 0  0.09375 0 0  0.125 0 0  0.15625 0 0  0.1875 0 0  0.21875 0 0  0.25 0 0  0.28125 0 0  0.3125 0 0  0.34375 0 0  0.375 0 0  0.40625 0 0  0.4375 0 0  0.46875 0 0  0.5 0 0  0.53125 0 0  0.5625 0 0  0.59375 0 0  0.625 0 0  0.65625 0 0  0.6875 0 0  0.71875 0 0  0.75 0 0  0.78125 0 0  0.8125 0 0  0.84375 0 0  0.875 0 0  0.90625 0 0  0.9375 0 0  0.96875 0 0  1 0 0  0 0.03125 0  0.03125 0.03125 0  0.0625 0.03125 0  0.09375 0.03125 0  0.125 0.03125 0  0.15625 0.03125 0  0.1875 0.03125 0  0.21875 0.03125 0  0.25 0.03125 0  0.28125 0.03125 0  0.3125 0.03125 0  0.34375 0.03125 0  0.375 0.03125 0  0.40625 0.03125 0  0.4375 0.03125 0  0.46875 0.03125 0  0.5 0.03125 0  0.53125 0.03125 0  0.5625 0.03125 0  0.59375 0.03125 0  0.625 0.03125 0  0.65625 0.03125 0  0.6875 0.03125 0  0.71875 0.03125 0  0.75 0.03125 0  0.78125 0.03125 0  0.8125 0.03125 0  0.84375 0.03125 0  0.875 0.03125 0  0.90625 0.03125 0  0.9375 0.03125 0  0.96875 0.03125 0  1 0.03125 0  0 0.0625 0  0.03125 0.0625 0  0.0625 0.0625 0  0.09375 0.0625 0  0.125 0.0625 0  0.15625 0.0625 0  0.1875 0.0625 0  0.21875 0.0625 0  0.25 0.0625 0  0.28125 0.0625 0  0.3125 0.0625 0  0.34375 0.0625 0  0.375 0.0625 0  0.40625 0.0625 0  0.4375 0.0625 0  0.46875 0.0625 0  0.5 0.0625 0  0.53125 0.0625 0  0.5625 0.0625 0  0.59375 0.0625 0  0.625 0.0625 0  0.65625 0.0625 0  0.6875 0.0625 0  0.71875 0.0625 0  0.75 0.0625 0  0.78125 0.0625 0  0.8125 0.0625 0  0.84375 0.0625 0  0.875 0.0625 0  0.90625 0.0625 0  0.9375 0.0625 0  0.96875 0.0625 0  1 0.0625 0  0 0.09375 0  0.03125 0.09375 0  0.0625 0.09375 0  0.09375 0.09375 0  0.125 0.09375 0  0.15625 0.09375 0  0.1875 0.09375 0  0.21875 0.09375 0  0.25 0.09375 0  0.28125 0.09375 0  0.3125 0.09375 0  0.34375 0.09375 0  0.375 0.09375 0  0.40625 0.09375 0  0.4375 0.09375 0  0.46875 0.09375 0  0.5 0.09375 0  0.53125 0.09375 0  0.5625 0.09375 0  0.59375 0.09375 0  0.625 0.09375 0  0.65625 0.09375 0  0.6875 0.09375 0  0.71875 0.09375 0  0.75 0.09375 0  0.78125 0.09375 0  0.8125 0.09375 0  0.84375 0.09375 0  0.875 0.09375 0  0.90625 0.09375 0  0.9375 0.09375 0  0.96875 0.09375 0  1 0.09375 0  0 0.125 0  0.03125 0.125 0  0.0625 0.125 0  0.09375 0.125 0  0.125 0.125 0  0.15625 0.125 0  0.1875 0.125 0  0.21875 0.125 0  0.25 0.125 0  0.28125 0.125 0  0.3125 0.125 0  0.34375 0.125 0  0.375 0.125 0  0.40625 0.125 0  0.4375 0.125 0  0.46875 0.125 0  0.5 0.125 0  0.53125 0.125 0  0.5625 0.125 0  0.59375 0.125 0  0.625 0.125 0  0.65625 0.125 0  0.6875 0.125 0  0.71875 0.125 0  0.75 0.125 0  0.78125 0.125 0  0.8125 0.125 0  0.84375 0.125 0  0.875 0.125 0  0.90625 0.125 0  0.9375 0.125 0  0.96875 0.125 0  1 0.125 0  0 0.15625 0  0.03125 0.15625 0  0.0625 0.15625 0  0.09375 0.15625 0  0.125 0.15625 0  0.15625 0.15625 0  0.1875 0.15625 0  0.21875 0.15625 0  0.25 0.15625 0  0.28125 0.15625 0  0.3125 0.15625 0  0.34375 0.15625 0  0.375 0.15625 0  0.40625 0.15625 0  0.4375 0.15625 0  0.46875 0.15625 0  0.5 0.15625 0  0.53125 0.15625 0  0.5625 0.15625 0  0.59375 0.15625 0  0.625 0.15625 0  0.65625 0.15625 0  0.6875 0.15625 0  0.71875 0.15625 0  0.75 0.15625 0  0.78125 0.15625 0  0.8125 0.15625 0  0.84375 0.15625 0  0.875 0.15625 0  0.90625 0.15625 0  0.9375 0.15625 0  0.96875 0.15625 0  1 0.15625 0  0 0.1875 0  0.03125 0.1875 0  0.0625 0.1875 0  0.09375 0.1875 0  0.125 0.1875 0  0.15625 0.1875 0  0.1875 0.1875 0  0.21875 0.1875 0  0.25 0.1875 0  0.28125 0.1875 0  0.3125 0.1875 0  0.34375 0.1875 0  0.375 0.1875 0  0.40625 0.1875 0  0.4375 0.1875 0  0.46875 0.1875 0  0.5 0.1875 0  0.53125 0.1875 0  0.5625 0.1875 0  0.59375 0.1875 0  0.625 0.1875 0  0.65625 0.1875 0  0.6875 0.1875 0  0.71875 0.1875 0  0.75 0.1875 0  0.78125 0.1875 0  0.8125 0.1875 0  0.84375 0.1875 0  0.875 0.1875 0  0.90625 0.1875 0  0.9375 0.1875 0  0.96875 0.1875 0  1 0.1875 0  0 0.21875 0  0.03125 0.21875 0  0.0625 0.21875 0  0.09375 0.21875 0  0.125 0.21875 0  0.15625 0.21875 0  0.1875 0.21875 0  0.21875 0.21875 0  0.25 0.21875 0  0.28125 0.21875 0  0.3125 0.21875 0  0.34375 0.21875 0  0.375 0.21875 0  0.40625 0.21875 0  0.4375 0.21875 0  0.46875 0.21875 0  0.5 0.21875 0  0.53125 0.21875 0  0.5625 0.21875 0  0.59375 0.21875 0  0.625 0.21875 0  0.65625 0.21875 0  0.6875 0.21875 0  0.71875 0.21875 0  0.75 0.21875 0  0.78125 0.21875 0  0.8125 0.21875 0  0.84375 0.21875 0  0.875 0.21875 0  0.90625 0.21875 0  0.9375 0.21875 0  0.96875 0.21875 0  1 0.21875 0  0 0.25 0  0.03125 0.25 0  0.0625 0.25 0  0.09375 0.25 0  0.125 0.25 0  0.15625 0.25 0  0.1875 0.25 0  0.21875 0.25 0  0.25 0.25 0  0.28125 0.25 0  0.3125 0.25 0  0.34375 0.25 0  0.375 0.25 0  0.40625 0.25 0  0.4375 0.25 0  0.46875 0.25 0  0.5 0.25 0  0.53125 0.25 0  0.5625 0.25 0  0.59375 0.25 0  0.625 0.25 0  0.65625 0.25 0  0.6875 0.25 0  0.71875 0.25 0  0.75 0.25 0  0.78125 0.25 0  0.8125 0.25 0  0.84375 0.25 0  0.875 0.25 0  0.90625 0.25 0  0.9375 0.25 0  0.96875 0.25 0  1 0.25 0  0 0.28125 0  0.03125 0.28125 0  0.0625 0.28125 0  0.09375 0.28125 0  0.125 0.28125 0  0.15625 0.28125 0  0.1875 0.28125 0  0.21875 0.28125 0  0.25 0.28125 0  0.28125 0.28125 0  0.3125 0.28125 0  0.34375 0.28125 0  0.375 0.28125 0  0.40625 0.28125 0  0.4375 0.28125 0  0.46875 0.28125 0  0.5 0.28125 0  0.53125 0.28125 0  0.5625 0.28125 0  0.59375 0.28125 0  0.625 0.28125 0  0.65625 0.28125 0  0.6875 0.28125 0  0.71875 0.28125 0  0.75 0.28125 0  0.78125 0.28125 0  0.8125 0.28125 0  0.84375 0.28125 0  0.875 0.28125 0  0.90625 0.28125 0  0.9375 0.28125 0  0.96875 0.28125 0  1 0.28125 0  0 0.3125 0  0.03125 0.3125 0  0.0625 0.3125 0  0.09375 0.3125 0  0.125 0.3125 0  0.15625 0.3125 0  0.1875 0.3125 0  0.21875 0.3125 0  0.25 0.3125 0  0.28125 0.3125 0  0.3125 0.3125 0  0.34375 0.3125 0  0.375 0.3125 0  0.40625 0.3125 0  0.4375 0.3125 0  0.46875 0.3125 0  0.5 0.3125 0  0.53125 0.3125 0  0.5625 0.3125 0  0.59375 0.3125 0  0.625 0.3125 0  0.65625 0.3125 0  0.6875 0.3125 0  0.71875 0.3125 0  0.75 0.3125 0  0.78125 0.3125 0  0.8125 0.3125 0  0.84375 0.3125 0  0.875 0.3125 0  0.90625 0.3125 0  0.9375 0.3125 0  0.96875 0.3125 0  1 0.3125 0  0 0.34375 0  0.03125 0.34375 0  0.0625 0.34375 0  0.09375 0.34375 0  0.125 0.34375 0  0.15625 0.34375 0  0.1875 0.34375 0  0.21875 0.34375 0  0.25 0.34375 0  0.28125 0.34375 0  0.3125 0.34375 0  0.34375 0.34375 0  0.375 0.34375 0  0.40625 0.34375 0  0.4375 0.34375 0  0.46875 0.34375 0  0.5 0.34375 0  0.53125 0.34375 0  0.5625 0.34375 0  0.59375 0.34375 0  0.625 0.34375 0  0.65625 0.34375 0  0.6875 0.34375 0  0.71875 0.34375 0  0.75 0.34375 0  0.78125 0.34375 0  0.8125 0.34375 0  0.84375 0.34375 0  0.875 0.34375 0  0.90625 0.34375 0  0.9375 0.34375 0  0.96875 0.34375 0  1 0.34375 0  0 0.375 0  0.03125 0.375 0  0.0625 0.375 0  0.09375 0.375 0  0.125 0.375 0  0.15625 0.375 0  0.1875 0.375 0  0.21875 0.375 0  0.25 0.375 0  0.28125 0.375 0  0.3125 0.375 0  0.34375 0.375 0  0.375 0.375 0  0.40625 0.375 0  0.4375 0.375 0  0.46875 0.375 0  0.5 0.375 0  0.53125 0.375 0  0.5625 0.375 0  0.59375 0.375 0  0.625 0.375 0  0.65625 0.375 0  0.6875 0.375 0  0.71875 0.375 0  0.75 0.375 0  0.78125 0.375 0  0.8125 0.375 0  0.84375 0.375 0  0.875 0.375 0  0.90625 0.375 0  0.9375 0.375 0  0.96875 0.375 0  1 0.375 0  0 0.40625 0  0.03125 0.40625 0  0.0625 0.40625 0  0.09375 0.40625 0  0.125 0.40625 0  0.15625 0.40625 0  0.1875 0.40625 0  0.21875 0.40625 0  0.25 0.40625 0  0.28125 0.40625 0  0.3125 0.40625 0  0.34375 0.40625 0  0.375 0.40625 0  0.40625 0.40625 0  0.4375 0.40625 0  0.46875 0.40625 0  0.5 0.40625 0  0.53125 0.40625 0  0.5625 0.40625 0  0.59375 0.40625 0  0.625 0.40625 0  0.65625 0.40625 0  0.6875 0.40625 0  0.71875 0.40625 0  0.75 0.40625 0  0.78125 0.40625 0  0.8125 0.40625 0  0.84375 0.40625 0  0.875 0.40625 0  0.90625 0.40625 0  0.9375 0.40625 0  0.96875 0.40625 0  1 0.40625 0  0 0.4375 0  0.03125 0.4375 0  0.0625 0.4375 0  0.09375 0.4375 0  0.125 0.4375 0  0.15625 0.4375 0  0.1875 0.4375 0  0.21875 0.4375 0  0.25 0.4375 0  0.28125 0.4375 0  0.3125 0.4375 0  0.34375 0.4375 0  0.375 0.4375 0  0.40625 0.4375 0  0.4375 0.4375 0  0.46875 0.4375 0  0.5 0.4375 0  0.53125 0.4375 0  0.5625 0.4375 0  0.59375 0.4375 0  0.625 0.4375 0  0.65625 0.4375 0  0.6875 0.4375 0  0.71875 0.4375 0  0.75 0.4375 0  0.78125 0.4375 0  0.8125 0.4375 0  0.84375 0.4375 0  0.875 0.4375 0  0.90625 0.4375 0  0.9375 0.4375 0  0.96875 0.4375 0  1 0.4375 0  0 0.46875 0  0.03125 0.46875 0  0.0625 0.46875 0  0.09375 0.46875 0  0.125 0.46875 0  0.15625 0.46875 0  0.1875 0.46875 0  0.21875 0.46875 0  0.25 0.46875 0  0.28125 0.46875 0  0.3125 0.46875 0  0.34375 0.46875 0  0.375 0.46875 0  0.40625 0.46875 0  0.4375 0.46875 0  0.46875 0.46875 0  0.5 0.46875 0  0.53125 0.46875 0  0.5625 0.46875 0  0.59375 0.46875 0  0.625 0.46875 0  0.65625 0.46875 0  0.6875 0.46875 0  0.71875 0.46875 0  0.75 0.46875 0  0.78125 0.46875 0  0.8125 0.46875 0  0.84375 0.46875 0  0.875 0.46875 0  0.90625 0.46875 0  0.9375 0.46875 0  0.96875 0.46875 0  1 0.46875 0  0 0.5 0  0.03125 0.5 0  0.0625 0.5 0  0.09375 0.5 0  0.125 0.5 0  0.15625 0.5 0  0.1875 0.5 0  0.21875 0.5 0  0.25 0.5 0  0.28125 0.5 0  0.3125 0.5 0  0.34375 0.5 0  0.375 0.5 0  0.40625 0.5 0  0.4375 0.5 0  0.46875 0.5 0  0.5 0.5 0  0.53125 0.5 0  0.5625 0.5 0  0.59375 0.5 0  0.625 0.5 0  0.65625 0.5 0  0.6875 0.5 0  0.71875 0.5 0  0.75 0.5 0  0.78125 0.5 0  0.8125 0.5 0  0.84375 0.5 0  0.875 0.5 0  0.90625 0.5 0  0.9375 0.5 0  0.96875 0.5 0  1 0.5 0  0 0.53125 0  0.03125 0.53125 0  0.0625 0.53125 0  0.09375 0.53125 0  0.125 0.53125 0  0.15625 0.53125 0  0.1875 0.53125 0  0.21875 0.53125 0  0.25 0.53125 0  0.28125 0.53125 0  0.3125 0.53125 0  0.34375 0.53125 0  0.375 0.53125 0  0.40625 0.53125 0  0.4375 0.53125 0  0.46875 0.53125 0  0.5 0.53125 0  0.53125 0.53125 0  0.5625 0.53125 0  0.59375 0.53125 0  0.625 0.53125 0  0.65625 0.53125 0  0.6875 0.53125 0  0.71875 0.53125 0  0.75 0.53125 0  0.78125 0.531
[...]
<PointData  Scalars="phi"> 
<DataArray  type="Float64"  Name="phi"  format="ascii">0.0000000000000000e+00  0.0000000000000000e+00  0.0000000000000000e+00  0.0000000000000000e+00  0.0000000000000000e+00  0.0000000000000000e+00  0.0000000000000000e+00  0.0000000000000000e+00  0.0000000000000000e+00  0.0000000000000000e+00  0.0000000000000000e+00  0.0000000000000000e+00  0.0000000000000000e+00  0.0000000000000000e+00  0.0000000000000000e+00  0.0000000000000000e+00  0.0000000000000000e+00  0.0000000000000000e+00  0.0000000000000000e+00  0.0000000000000000e+00  0.0000000000000000e+00  0.0000000000000000e+00  0.0000000000000000e+00  0.0000000000000000e+00  0.0000000000000000e+00  0.0000000000000000e+00  0.0000000000000000e+00  0.0000000000000000e+00  0.0000000000000000e+00  0.0000000000000000e+00  0.0000000000000000e+00  0.0000000000000000e+00  0.0000000000000000e+00  0.0000000000000000e+00  1.3388655629830836e-05  2.0753899239958629e-05  2.4827569687837971e-05  2.6698632177675572e-05  2.6985700591915414e-05  2.6087864735690764e-05  2.4291889916760144e-05  2.1822892065236250e-05  1.8869990048771615e-05  1.5599612478255434e-05  1.2162142711979844e-05  8.6947353134126520e-06  5.3218657520759036e-06  2.1545558547943558e-06  -7.1111166690274868e-07  -3.1957673414548075e-06  -5.2385162491695725e-06  -6.7984674291870703e-06  -7.8558715155625965e-06  -8.4127500139651729e-06  -8.4929298861257004e-06  -8.1414147645633272e-06  -7.4230278366272089e-06  -6.4202482189875017e-06  -5.2301272927347863e-06  -3.9601049597481506e-06  -2.7224312909153404e-06  -1.6267021654910082e-06  -7.6966082105054805e-07  -2.2070925260585255e-07  -6.0368497591923232e-17  0.0000000000000000e+00  0.0000000000000000e+00  2.0753899239959062e-05  3.1798162765314664e-05  3.7662222875589450e-05  3.9886947746796235e-05  3.9475150194259560e-05  3.7124997621753794e-05  3.3356616409609130e-05  2.8581908599580735e-05  2.3143677541222554e-05  1.7337489008709475e-05  1.1423409476679983e-05  5.6316320186482194e-06  1.6438533818712020e-07  -4.8043552769924669e-06  -9.1303425811487676e-06  -1.2701017859725362e-05  -1.5437464010796022e-05  -1.7296001900333167e-05  -1.8269184259613221e-05  -1.8386015354782993e-05  -1.7711273398733022e-05  -1.6343836729156274e-05  -1.4413911912278341e-05  -1.2079027357215577e-05  -9.5185817304286116e-06  -6.9266092676835943e-06  -4.5022212534292930e-06  -2.4368626277223204e-06  -8.9700330022640656e-07  -2.3875913275571446e-16  2.2070925236582374e-07  0.0000000000000000e+00  0.0000000000000000e+00  2.4827569687838839e-05  3.7662222875590318e-05  4.4576281322337118e-05  4.7111096073783332e-05  4.6394562452527210e-05  4.3270243049406756e-05  3.8392289715872760e-05  3.2288444096683147e-05  2.5399944963103160e-05  1.8105845005726012e-05  1.0737015625860227e-05  3.5833984083025877e-06  -3.1030885012852533e-06  -9.1083277146599556e-06  -1.4257293772671278e-05  -1.8416022765728804e-05  -2.1493661250130205e-05  -2.3444167159573578e-05  -2.4267361409103724e-05  -2.4009118396670255e-05  -2.2760540292194806e-05  -2.0655983768144270e-05  -1.7869795762592323e-05  -1.4611561548607838e-05  -1.1119565537305543e-05  -7.6520007012954947e-06  -4.4752181938946881e-06  -1.8479575131121991e-06  -5.2702534398443137e-16  8.9700329951716894e-07  7.6966082069427922e-07  0.0000000000000000e+00  0.0000000000000000e+00  2.6698632177677307e-05  3.9886947746799704e-05  4.7111096073783332e-05  4.9755480882528527e-05  4.8918148771262895e-05  4.5469159654799168e-05  4.0109208784566003e-05  3.3416282629171457e-05  2.5879003524083288e-05  1.7918745648375090e-05  9.9032042534148712e-06  2.1538105071973457e-06  -5.0510890836213962e-06  -1.1475809280594301e-05  -1.6928537930680290e-05  -2.1263343812517183e-05  -2.4382360536713207e-05  -2.6237696080198825e-05  -2.6832745908166034e-05  -2.6222679217736966e-05  -2.4513923739274621e-05  -2.1862493318567516e-05  -1.8470980691094336e-05  -1.4583970208639427e-05  -1.0481504950300442e-05  -6.4700613881996018e-06  -2.8702335525009385e-06  -9.1393936805929600e-16  1.8479575117244203e-06  2.4368626267889037e-06  1.6267021650223889e-06  0.0000000000000000e+00  0.0000000000000000e+00  2.6985700591919317e-05  3.9475150194262162e-05  4.6394562452530680e-05  4.8918148771268100e-05  4.8030960250163360e-05  4.4549769289428665e-05  3.9154906342767776e-05  3.2420740827061173e-05  2.4840108168989322e-05  1.6841805205562027e-05  8.8018888886702562e-06  1.0500305162586265e-06  -6.1277849403781892e-06  -1.2489070760846044e-05  -1.7836216237299141e-05  -2.2018681834153758e-05  -2.4935438830496481e-05  -2.6537227635792249e-05  -2.6828325133020775e-05  -2.5867594952228706e-05  -2.3768643325973622e-05  -2.0698914016555568e-05  -1.6877524698151458e-05  -1.2571569395125951e-05  -8.0904822038238393e-06  -3.7778724896091534e-06  -1.3850428456648958e-15  2.8702335502511648e-06  4.4752181921871781e-06  4.5022212522812313e-06  2.7224312903391412e-06  0.0000000000000000e+00  0.0000000000000000e+00  2.6087864735694234e-05  3.7124997621757264e-05  4.3270243049410226e-05  4.5469159654802638e-05  4.4549769289435603e-05  4.1225116797796030e-05  3.6107901077463145e-05  2.9728097675641579e-05  2.2548804301716213e-05  1.4978373953984658e-05  7.3785010602823997e-06  6.8700685446065890e-08  -6.6720806198919402e-06  -1.2605933739081449e-05  -1.7537814641973432e-05  -2.1318124308548903e-05  -2.3845559230462055e-05  -2.5069866488617795e-05  -2.4994233350710687e-05  -2.3677110777801588e-05  -2.1233307990866160e-05  -1.7834196635685591e-05  -1.3706823539807577e-05  -9.1316462853656150e-06  -4.4384724279090222e-06  -1.9223795686549259e-15  3.7778724863464638e-06  6.4700613855500286e-06  7.6520006992851670e-06  6.9266092663324615e-06  3.9601049590701448e-06  0.0000000000000000e+00  0.0000000000000000e+00  2.4291889916767083e-05  3.3356616409619538e-05  3.8392289715881434e-05  4.0109208784572942e-05  3.9154906342781653e-05  3.6107901077480492e-05  3.1481689127917795e-05  2.5732906420807000e-05  1.9269872872960253e-05  1.2459525671377342e-05  5.6319829455052373e-06  -9.1729127776538077e-07  -6.9273796793299647e-06  -1.2173376350465420e-05  -1.6468923300254346e-05  -1.9669370363087357e-05  -2.1675189898765629e-05  -2.2435361698297518e-05  -2.1950516944832174e-05  -2.0275683052949425e-05  -1.7522496466056484e-05  -1.3860742154449962e-05  -9.5190316144054717e-06  -4.7843415036134471e-06  -2.5058020427451115e-15  4.4384724235195213e-06  8.0904822001002553e-06  1.0481504947276819e-05  1.1119565535012022e-05  9.5185817288873098e-06  5.2301272919616417e-06  0.0000000000000000e+00  0.0000000000000000e+00  2.1822892065245791e-05  2.8581908599596348e-05  3.2288444096702229e-05  3.3416282629195743e-05  3.2420740827099337e-05  2.9728097675686682e-05  2.5732906420831286e-05  2.0799298565129382e-05  1.5263589723327198e-05  9.4365365526649647e-06  3.6044300301789345e-06  -1.9712203052982269e-06  -7.0553201385360753e-06  -1.1441885732259294e-05  -1.4957491046234395e-05  -1.7465169683084786e-05  -1.8868521030442759e-05  -1.9115827162914656e-05  -1.8204039633045940e-05  -1.6182532210629735e-05  -1.3156528683566822e-05  -9.2900974704881838e-06  -4.8085516635555745e-06  -3.1135706826417269e-15  4.7843414980280712e-06  9.1316462804743453e-06  1.2571569390976926e-05  1.4583970205272329e-05  1.4611561546054325e-05  1.2079027355500153e-05  6.4202482181269704e-06  0.0000000000000000e+00  0.0000000000000000e+00  1.8869990048783758e-05  2.3143677541243371e-05  2.5399944963130916e-05  2.5879003524121452e-05  2.4840108169034425e-05  2.2548804301757847e-05  1.9269872872988009e-05  1.5263589723330667e-05  1.0783551922733531e-05  6.0748660220717732e-06  1.3720022211220761e-06  -3.1039905879909346e-06  -7.1489558422649369e-06  -1.0579688900641537e-05  -1.3238427114686119e-05  -1.4997606511860800e-05  -1.5764746236105603e-05  -1.5487359114520899e-05  -1.4157822165971473e-05  -1.1818163926567010e-05  -8.5647278559438864e-06  -4.5526461031450589e-06  -3.7224713092385904e-15  4.8085516567467849e-06  9.5190316083001124e-06  1.3706823534462894e-05  1.6877524693618192e-05  1.8470980687414987e-05  1.7869795759803755e-05  1.4413911910405273e-05  7.4230278356880730e-06  0.0000000000000000e+00  0.0000000000000000e+00  1.5599612478265842e-05  1.7337489008732027e-05  1.8105845005760707e-05  1.7918745648416723e-05  1.6841805205600191e-05  1.4978373954026292e-05  1.2459525671418975e-05  9.4365365526788425e-06  6.0748660220925899e-06  2.5488671647304340e-06  -9.6328299836398457e-07  -4.2847114740014736e-06  -7.2451441719204035e-06  -9.6863725287527069e-06  -1.1467847759551175e-05  -1.2472348984913367e-05  -1.2611685579325127e-05  -1.1832418215278195e-05  -1.0121605878272988e-05  -7.5125983269438631e-06  -4.0908874236380427e-06  -4.3084713236307127e-15  4.5526460951371417e-06  9.2900974631641813e-06  1.3860742147883166e-05  1.7834196629938452e-05  2.0698914011681863e-05  2.1862493314614082e-05  2.0655983765147969e-05  1.6343836727144862e-05  8.1414147635539350e-06  0.0000000000000000e+00  0.0000000000000000e+00  1.2162142711989385e-05  1.1423409476702534e-05  1.0737015625891452e-05  9.9032042534565046e-06  8.8018888887014812e-06  7.3785010603205636e-06  5.6319829455503401e-06  3.6044300302240373e-06  1.3720022211498317e-06  -9.6328299836051512e-07  -3.2811826059277183e-06  -5.4504924317765047e-06  -7.3360653985478363e-06  -8.8056479963273537e-06  -9.7365717767403104e-06  -1.0022332644840648e-05  -9.5791017063560219e-06  -8.3522283590951873e-06  -6.3228107888635768e-06  -3.5144135624538483e-06  -4.8497347419660527e-15  4.0908874144951826e-06  8.5647278474498129e-06  1.3156528675796995e-05  1.7522496459089834e-05  2.1233307984768607e-05  2.3768643320804146e-05  2.4513923735081794e-05  2.2760540289018527e-05  1.7711273396601480e-05  8.4929298850555928e-06  0.0000000000000000e+00  0.0000000000000000e+00  8.6947353134187236e-06  5.6316320186620972e-06  3.5833984083234044e-06  2.1538105072216318e-06  1.0500305162863821e-06  6.8700685480760360e-08  -9.1729127773762520e-07  -1.9712203052635324e-06  -3.1039905879631791e-06  -4.2847114739980041e-06  -5.4504924317730352e-06  -6.5155727503041216e-06  -7.3798894055544795e-06  -7.9371753103525677e-06  -8.0826777596951227e-06  -7.7205939111660293e-06  -6.7713333349525562e-06  -5.1787319867557108e-06  -2.9173518106039367e-06  -5.3233270058281069e-15  3.5144135522909709e-06  7.5125983173638528e-06  1.1818163917668746e-05  1.6182532202490413e-05  2.0275683045653178e-05  2.3677110771416071e-05  2.5867594946812900e-05  2.6222679213345514e-05  2.4009118393343923e-05  1.8386015352551272e-05  8.4127500128458425e-06  0.0000000000000000e+00  0.0000000000000000e+00  5.3218657520811077e-06  1.6438533819752854e-07  -3.1030885012731102e-06  -5.0510890836005795e-06  -6.1277849403573725e-06  -6.6720806198572458e-06  -6.9273796793056786e-06  -7.0553201385013808e-06  -7.1489558422371813e-06  -7.2451441719134646e-06  -7.3360653985408975e-06  -7.3798894055510100e-06  -7.3106553667642848e-06  -7.0474606448517330e-06  -6.5030783762669991e-06  -5.5921438608143303e-06  -4.2390686127886934e-06  -2.3858559310202185e-06  -5.7097060993511644e-15  2.9173517995771669e-06  6.3228107783338053e-06  1.0121605868345165e-05  1.4157822156747948e-05  1.8204039624613449e-05  2.1950516937270514e-05  2.4994233344103126e-05  2.6828325127412414e-05  2.6832745903617589e-05  2.4267361405662900e-05  1.8269184257303436e-05  7.8558715144038012e-06  0.0000000000000000e+00  0.0000000000000000e+00  2.1545558547969579e-06  -4.8043552769872627e-06  -9.1083277146443431e-06  -1.1475809280576954e-05  -1.2489070760821758e-05  -1.2605933739067571e-05  -1.2173376350455012e-05  -1.1441885732235008e-05  -1.0579688900620721e-05  -9.6863725287422986e-06  -8.8056479963342926e-06  -7.9371753103699150e-06  -7.0474606448586719e-06  -6.0799095539590398e-06  -4.9641652422847959e-06  -3.6248962911964583e-06  -1.9902243337636960e-06  -5.9998418883032215e-15  2.3858559193173402e-06  5.1787319754531200e-06  8.3522283483086768e-06  1.1832418205107512e-05  1.5487359105071860e-05  1.9115827154275733e-05  2.2435361690557182e-05  2.5069866481847169e-05  2.6537227630057253e-05  2.6237696075548031e-05  2.3444167156050355e-05  1.7296001897968739e-05  6.7984674280022542e-06  0.0000000000000000e+00  0.0000000000000000e+00  -7.1111166690274868e-07  -9.1303425811435635e-06  -1.4257293772662605e-05  -1.6928537930673351e-05  -1.7836216237299141e-05  -1.7537814641980370e-05  -1.6468923300247407e-05  -1.4957491046223986e-05  -1.3238427114689588e-05  -1.1467847759551175e-05  -9.7365717767576576e-06  -8.0826777597055310e-06  -6.5030783762739380e-06  -4.9641652422934696e-06  -3.4116469387239848e-06  -1.7797516463431869e-06  -6.1809921413025970e-15  1.9902243215842025e-06  4.2390686009119091e-06  6.7713333234790951e-06  9.5791016954081820e-06  1.2611685569010461e-05  1.5764746226519522e-05  1.8868521021678936e-05  2.1675189890914270e-05  2.3845559223590815e-05  2.4935438824674749e-05  2.4382360531996494e-05  2.1493661246560145e-05  1.5437464008400369e-05  5.2385162479687102e-06  0.0000000000000000e+00  0.0000000000000000e+00  -3.1957673414587107e-06  -1.2701017859727964e-05  -1.8416022765730539e-05  -2.1263343812518917e-05  -2.2018681834160697e-05  -2.1318124308562780e-05  -1.9669370363097766e-05  -1.7465169683084786e-05  -1.4997606511864270e-05  -1.2472348984923776e-05  -1.0022332644854526e-05  -7.7205939111747030e-06  -5.5921438608177998e-06  -3.6248962912007951e-06  -1.7797516463462226e-06  -6.2442716392154941e-15  1.7797516339199647e-06  3.6248962789545147e-06  5.5921438488724939e-06  7.7205938996353224e-06  1.0022332633845971e-05  1.2472348974557068e-05  1.4997606502246963e-05  1.7465169674296677e-05  1.9669370355215182e-05  2.1318124301662050e-05  2.2018681828311210e-05  2.1263343807774449e-05  1.8416022762137926e-05  1.2701017857316699e-05  3.1957673402474400e-06  0.0000000000000000e+00  0.0000000000000000e+00  -5.2385162491773787e-06  -1.5437464010803828e-05  -2.1493661250138879e-05  -2.4382360536723616e-05  -2.4935438830505155e-05  -2.3845559230472463e-05  -2.1675189898776037e-05  -1.8868521030449698e-05  -1.5764746236109073e-05  -1.2611685579333801e-05  -9.5791017063664302e-06  -6.7713333349560256e-06  -4.2390686127947649e-06  -1.9902243337671655e-06  -6.1826852913502644e-15  1.7797516339173626e-06  3.4116469263580085e-06  4.9641652301018330e-06  6.5030783643789392e-06  8.0826777482112533e-06  9.7365717657872664e-06  1.1467847749257326e-05  1.3238427105124323e-05  1.4957491037498327e-05  1.6468923292416865e-05  1.7537814635128213e-05  1.7836216231487817e-05  1.6928537925963577e-05  1.4257293769096013e-05  9.1303425787496451e-06  7.1111166569971795e-07  0.0000000000000000e+00  0.0000000000000000e+00  -6.7984674291931418e-06  -1.7296001900340106e-05  -2.3444167159582252e-05  -2.6237696080210968e-05  -2.6537227635811331e-05  -2.5069866488633408e-05  -2.2435361698314865e-05  -1.9115827162930268e-05  -1.5487359114546920e-05  -1.1832418215295543e-05  -8.3522283591090651e-06  -5.1787319867635170e-06  -2.3858559310258563e-06  -6.0013125559890872e-15  1.9902243215859372e-06  3.6248962789579842e-06  4.9641652301035677e-06  6.0799095419495491e-06  7.0474606331319412e-06  7.9371752990387012e-06  8.8056479855408432e-06  9.6863725186011052e-06  1.0579688891221989e-05  1.1441885723655065e-05  1.2173376342766717e-05  1.2605933732336844e-05  1.2489070755117987e-05  1.1475809275948712e-05  9.1083277111349975e-06  4.8043552746297735e-06  -2.1545558559800393e-06  0.0000000000000000e+00  0.0000000000000000e+00  -7.8558715155678006e-06  -1.8269184259620160e-05  -2.4267361409115867e-05  -2.6832745908178177e-05  -2.6828325133038122e-05  -2.4994233350729769e-05  -2.1950516944849521e-05  -1.8204039633065022e-05  -1.4157822165988820e-05  -1.0121605878286866e-05  -6.3228107888713830e-06  -2.9173518106100083e-06  -5.7109536371092614e-15  2.3858559193190750e-06  4.2390686009162459e-06  5.5921438488811676e-06  6.5030783643841433e-06  7.0474606331423495e-06  7.3106553553393960e-06  7.3798893945216382e-06  7.3360653880458204e-06  7.2451441620359491e-06  7.1489558330986580e-06  7.0553201301573609e-06  6.9273796718220815e-06  6.6720806133138688e-06  6.1277849347923796e-06  5.0510890790937679e-06  3.1030884978539702e-06  -1.6438534049430242e-07  -5.3218657532338315e-06  0.0000000000000000e+00  0.0000000000000000e+00  -8.4127500139712444e-06  -1.8386015354790800e-05  -2.4009118396679796e-05  -2.6222679217746507e-05  -2.5867594952239115e-05  -2.3677110777817201e-05  -2.0275683052966773e-05  -1.6182532210647083e-05  -1.1818163926586092e-05  -7.5125983269551388e-06  -3.5144135624599199e-06  -5.3230547646878591e-15  2.9173517995841058e-06  5.1787319754617936e-06  6.7713333234929729e-06  7.7205938996474655e-06  8.0826777482251311e-06  7.9371752990491096e-06  7.3798893945251076e-06  6.5155727396772056e-06  5.4504924216491890e-06  4.2847114644882500e-06  3.1039905791577227e-06  1.9712202972178849e-06  9.1729127052464499e-07  -6.8700691798623259e-08  -1.0500305216501471e-06  -2.1538105115723183e-06  -3.5833984116211137e-06  -5.6316320208756043e-06  -8.6947353145306813e-06  0.0000000000000000e+00  0.0000000000000000e+00  -8.4929298861296035e-06  -1.7711273398739527e-05  -2.2760540292203479e-05  -2.4513923739284162e-05  -2.3768643325983163e-05  -2.1233307990875701e-05  -1.7522496466066892e-05  -1.3156528683577230e-05  -8.5647278559551621e-06  -4.0908874236428132e-06  -4.8492803125283818e-15  3.5144135522970424e-06  6.3228107783485504e-06  8.3522283483242893e-06  9.5791016954289987e-06  1.0022332633856379e-05  9.7365717658046136e-06  8.8056479855651293e-06  7.3360653880527593e-06  5.4504924216595974e-06  3.2811825962930641e-06  9.6328298930525857e-07  -1.3720022295493628e-06  -3.6044300378845762e-06  -5.6319829524198450e-06  -7.3785010663469930e-06  -8.8018888938258544e-06  -9.9032042576059631e-06  -1.0737015629034771e-05  -1.1423409478810223e-05  -1.2162142713048434e-05  0.0000000000000000e+00  0.0000000000000000e+00  -8.1414147645661461e-06  -1.6343836729160177e-05  -2.0655983768149474e-05  -2.1862493318574455e-05  -2.0698914016564242e-05  -1.7834196635693397e-05  -1.3860742154456901e-05  -9.2900974704933879e-06  -4.5526461031476610e-06  -4.3075375137151391e-15  4.0908874145016878e-06  7.5125983173759958e-06  1.0121605868360778e-05  1.1832418205130063e-05  1.2611685569034747e-05  1.2472348974574415e-05  1.1467847749260796e-05  9.6863725186184524e-06  7.2451441620532964e-06  4.2847114645055973e-06  9.6328298930525857e-07  -2.5488671732548651e-06  -6.0748660300063984e-06  -9.4365365599057005e-06  -1.2459525677899902e-05  -1.4978373959702307e-05  -1.6841805210419253e-05  -1.7918745652330259e-05  -1.8105845008728819e-05  -1.7337489010723489e-05  -1.5599612479266778e-05  0.0000000000000000e+00  0.0000000000000000e+00  -7.4230278366289437e-06  -1.4413911912278341e-05  -1.7869795762593624e-05  -1.8470980691095203e-05  -1.6877524698154928e-05  -1.3706823539810179e-05  -9.5190316144072064e-06  -4.8085516635547072e-06  -3.7192566377118681e-15  4.5526460951425627e-06  8.5647278474593538e-06  1.1818163917684359e-05  1.4157822156767030e-05  1.5487359105097881e-05  1.5764746226547277e-05  1.4997606502271249e-05  1.3238427105152079e-05  1.0579688891246275e-05  7.1489558331125358e-06  3.1039905791750699e-06  -1.3720022295285461e-06  -6.0748660299925206e-06  -1.0783551930092228e-05  -1.5263589730075272e-05  -1.9269872879031785e-05  -2.2548804307041814e-05  -2.4840108173523889e-05  -2.5879003527771310e-05  -2.5399944965904739e-05  -2.3143677543099525e-05  -1.8869990049715304e-05  0.0000000000000000e+00  0.0000000000000000e+00  -6.4202482189876101e-06  -1.2079027357213192e-05  -1.4611561548604803e-05  -1.4583970208636391e-05  -1.2571569395123348e-05  -9.1316462853627961e-06  -4.7843415036104113e-06  -3.1089646342580478e-15  4.8085516567537238e-06  9.2900974631741559e-06  1.3156528675812608e-05  1.6182532202511229e-05  1.8204039624644675e-05  1.9115827154301754e-05  1.8868521021699752e-05  1.7465169674314024e-05  1.4957491037508736e-05  1.1441885723665474e-05  7.0553201301642998e-06  1.9712202972282933e-06  -3.6044300378672289e-06  -9.436536