<?xml version="1.0"?>
<VTKFile type="UnstructuredGrid"  version="0.1"  >
<UnstructuredGrid>
<Piece  NumberOfPoints="1089" NumberOfCells="2048">
<Points>
<DataArray  type="Float64"  NumberOfComponents="3"  format="ascii">0 0 0  0.03125 0 0  0.0625 0 0  0.09375 0 0  0.125 0 0  0.15625 0 0  0.1875 0 0  0.21875 0 0  0.25 0 0  0.28125 0 0  0.3125 0 0  0.34375 0 0  0.375 0 0  0.40625 0 0  0.4375 0 0  0.46875 0 0  0.5 0 0  0.53125 0 0  0.5625 0 0  0.59375 0 0  0.625 0 0  0.65625 0 0  0.6875 0 0  0.71875 0 0  0.75 0 0  0.78125 0 0  0.8125 0 0  0.84375 0 0  0.875 0 0  0.90625 0 0  0.9375 0 0  0.96875 0 0  1 0 0  0 0.03125 0  0.03125 0.03125 0  0.0625 0.03125 0  0.09375 0.03125 0  0.125 0.03125 0  0.15625 0.03125 0  0.1875 0.03125 0  0.21875 0.03125 0  0.25 0.03125 0  0.28125 0.03125 0  0.3125 0.03125 0  0.34375 0.03125 0  0.375 0.03125 0  0.40625 0.03125 0  0.4375 0.03125 0  0.46875 0.03125 0  0.5 0.03125 0  0.53125 0.03125 0  0.5625 0.03125 0  0.59375 0.03125 0  0.625 0.03125 0  0.65625 0.03125 0  0.6875 0.03125 0  0.71875 0.03125 0  0.75 0.03125 0  0.78125 0.03125 0  0.8125 0.03125 0  0.84375 0.03125 0  0.875 0.03125 0  0.90625 0.03125 0  0.9375 0.03125 0  0.96875 0.03125 0  1 0.03125 0  0 0.0625 0  0.03125 0.0625 0  0.0625 0.0625 0  0.09375 0.0625 0  0.125 0.0625 0  0.15625 0.0625 0  0.1875 0.0625 0  0.21875 0.0625 0  0.25 0.0625 0  0.28125 0.0625 0  0.3125 0.0625 0  0.34375 0.0625 0  0.375 0.0625 0  0.40625 0.0625 0  0.4375 0.0625 0  0.46875 0.0625 0  0.5 0.0625 0  0.53125 0.0625 0  0.5625 0.0625 0  0.59375 0.0625 0  0.625 0.0625 0  0.65625 0.0625 0  0.6875 0.0625 0  0.71875 0.0625 0  0.75 0.0625 0  0.78125 0.0625 0  0.8125 0.0625 0  0.84375 0.0625 0  0.875 0.0625 0  0.90625 0.0625 0  0.9375 0.0625 0  0.96875 0.0625 0  1 0.0625 0  0 0.09375 0  0.03125 0.09375 0  0.0625 0.09375 0  0.09375 0.09375 0  0.125 0.09375 0  0.15625 0.09375 0  0.1875 0.09375 0  0.21875 0.09375 0  0.25 0.09375 0  0.28125 0.09375 0  0.3125 0.09375 0  0.34375 0.09375 0  0.375 0.09375 0  0.40625 0.09375 0  0.4375 0.09375 0  0.46875 0.09375 0  0.5 0.09375 0  0.53125 0.09375 0  0.5625 0.09375 0  0.59375 0.09375 0  0.625 0.09375 0  0.65625 0.09375 0  0.6875 0.09375 0  0.71875 0.09375 0  0.75 0.09375 0  0.78125 0.09375 0  0.8125 0.09375 0  0.84375 0.09375 0  0.875 0.09375 0  0.90625 0.09375 0  0.9375 0.09375 0  0.96875 0.09375 0  1 0.09375 0  0 0.125 0  0.03125 0.125 0  0.0625 0.125 0  0.09375 0.125 0  0.125 0.125 0  0.15625 0.125 0  0.1875 0.125 0  0.21875 0.125 0  0.25 0.125 0  0.28125 0.125 0  0.3125 0.125 0  0.34375 0.125 0  0.375 0.125 0  0.40625 0.125 0  0.4375 0.125 0  0.46875 0.125 0  0.5 0.125 0  0.53125 0.125 0  0.5625 0.125 0  0.59375 0.125 0  0.625 0.125 0  0.65625 0.125 0  0.6875 0.125 0  0.71875 0.125 0  0.75 0.125 0  0.78125 0.125 0  0.8125 0.125 0  0.84375 0.125 0  0.875 0.125 0  0.90625 0.125 0  0.9375 0.125 0  0.96875 0.125 0  1 0.125 0  0 0.15625 0  0.03125 0.15625 0  0.0625 0.15625 0  0.09375 0.15625 0  0.125 0.15625 0  0.15625 0.15625 0  0.1875 0.15625 0  0.21875 0.15625 0  0.25 0.15625 0  0.28125 0.15625 0  0.3125 0.15625 0  0.34375 0.15625 0  0.375 0.15625 0  0.40625 0.15625 0  0.4375 0.15625 0  0.46875 0.15625 0  0.5 0.15625 0  0.53125 0.15625 0  0.5625 0.15625 0  0.59375 0.15625 0  0.625 0.15625 0  0.65625 0.15625 0  0.6875 0.15625 0  0.71875 0.15625 0  0.75 0.15625 0  0.78125 0.15625 0  0.8125 0.15625 0  0.84375 0.15625 0  0.875 0.15625 0  0.90625 0.15625 0  0.9375 0.15625 0  0.96875 0.15625 0  1 0.15625 0  0 0.1875 0  0.03125 0.1875 0  0.0625 0.1875 0  0.09375 0.1875 0  0.125 0.1875 0  0.15625 0.1875 0  0.1875 0.1875 0  0.21875 0.1875 0  0.25 0.1875 0  0.28125 0.1875 0  0.3125 0.1875 0  0.34375 0.1875 0  0.375 0.1875 0  0.40625 0.1875 0  0.4375 0.1875 0  0.46875 0.1875 0  0.5 0.1875 0  0.53125 0.1875 0  0.5625 0.1875 0  0.59375 0.1875 0  0.625 0.1875 0  0.65625 0.1875 0  0.6875 0.1875 0  0.71875 0.1875 0  0.75 0.1875 0  0.78125 0.1875 0  0.8125 0.1875 0  0.84375 0.1875 0  0.875 0.1875 0  0.90625 0.1875 0  0.9375 0.1875 0  0.96875 0.1875 0  1 0.1875 0  0 0.21875 0  0.03125 0.21875 0  0.0625 0.21875 0  0.09375 0.21875 0  0.125 0.21875 0  0.15625 0.21875 0  0.1875 0.21875 0  0.21875 0.21875 0  0.25 0.21875 0  0.28125 0.21875 0  0.3125 0.21875 0  0.34375 0.21875 0  0.375 0.21875 0  0.40625 0.21875 0  0.4375 0.21875 0  0.46875 0.21875 0  0.5 0.21875 0  0.53125 0.21875 0  0.5625 0.21875 0  0.59375 0.21875 0  0.625 0.21875 0  0.65625 0.21875 0  0.6875 0.21875 0  0.71875 0.21875 0  0.75 0.21875 0  0.78125 0.21875 0  0.8125 0.21875 0  0.84375 0.21875 0  0.875 0.21875 0  0.90625 0.21875 0  0.9375 0.21875 0  0.96875 0.21875 0  1 0.21875 0  0 0.25 0  0.03125 0.25 0  0.0625 0.25 0  0.09375 0.25 0  0.125 0.25 0  0.15625 0.25 0  0.1875 0.25 0  0.21875 0.25 0  0.25 0.25 0  0.28125 0.25 0  0.3125 0.25 0  0.34375 0.25 0  0.375 0.25 0  0.40625 0.25 0  0.4375 0.25 0  0.46875 0.25 0  0.5 0.25 0  0.53125 0.25 0  0.5625 0.25 0  0.59375 0.25 0  0.625 0.25 0  0.65625 0.25 0  0.6875 0.25 0  0.71875 0.25 0  0.75 0.25 0  0.78125 0.25 0  0.8125 0.25 0  0.84375 0.25 0  0.875 0.25 0  0.90625 0.25 0  0.9375 0.25 0  0.96875 0.25 0  1 0.25 0  0 0.28125 0  0.03125 0.28125 0  0.0625 0.28125 0  0.09375 0.28125 0  0.125 0.28125 0  0.15625 0.28125 0  0.1875 0.28125 0  0.21875 0.28125 0  0.25 0.28125 0  0.28125 0.28125 0  0.3125 0.28125 0  0.34375 0.28125 0  0.375 0.28125 0  0.40625 0.28125 0  0.4375 0.28125 0  0.46875 0.28125 0  0.5 0.28125 0  0.53125 0.28125 0  0.5625 0.28125 0  0.59375 0.28125 0  0.625 0.28125 0  0.65625 0.28125 0  0.6875 0.28125 0  0.71875 0.28125 0  0.75 0.28125 0  0.78125 0.28125 0  0.8125 0.28125 0  0.84375 0.28125 0  0.875 0.28125 0  0.90625 0.28125 0  0.9375 0.28125 0  0.96875 0.28125 0  1 0.28125 0  0 0.3125 0  0.03125 0.3125 0  0.0625 0.3125 0  0.09375 0.3125 0  0.125 0.3125 0  0.15625 0.3125 0  0.1875 0.3125 0  0.21875 0.3125 0  0.25 0.3125 0  0.28125 0.3125 0  0.3125 0.3125 0  0.34375 0.3125 0  0.375 0.3125 0  0.40625 0.3125 0  0.4375 0.3125 0  0.46875 0.3125 0  0.5 0.3125 0  0.53125 0.3125 0  0.5625 0.3125 0  0.59375 0.3125 0  0.625 0.3125 0  0.65625 0.3125 0  0.6875 0.3125 0  0.71875 0.3125 0  0.75 0.3125 0  0.78125 0.3125 0  0.8125 0.3125 0  0.84375 0.3125 0  0.875 0.3125 0  0.90625 0.3125 0  0.9375 0.3125 0  0.96875 0.3125 0  1 0.3125 0  0 0.34375 0  0.03125 0.34375 0  0.0625 0.34375 0  0.09375 0.34375 0  0.125 0.34375 0  0.15625 0.34375 0  0.1875 0.34375 0  0.21875 0.34375 0  0.25 0.34375 0  0.28125 0.34375 0  0.3125 0.34375 0  0.34375 0.34375 0  0.375 0.34375 0  0.40625 0.34375 0  0.4375 0.34375 0  0.46875 0.34375 0  0.5 0.34375 0  0.53125 0.34375 0  0.5625 0.34375 0  0.59375 0.34375 0  0.625 0.34375 0  0.65625 0.34375 0  0.6875 0.34375 0  0.71875 0.34375 0  0.75 0.34375 0  0.78125 0.34375 0  0.8125 0.34375 0  0.84375 0.34375 0  0.875 0.34375 0  0.90625 0.34375 0  0.9375 0.34375 0  0.96875 0.34375 0  1 0.34375 0  0 0.375 0  0.03125 0.375 0  0.0625 0.375 0  0.09375 0.375 0  0.125 0.375 0  0.15625 0.375 0  0.1875 0.375 0  0.21875 0.375 0  0.25 0.375 0  0.28125 0.375 0  0.3125 0.375 0  0.34375 0.375 0  0.375 0.375 0  0.40625 0.375 0  0.4375 0.375 0  0.46875 0.375 0  0.5 0.375 0  0.53125 0.375 0  0.5625 0.375 0  0.59375 0.375 0  0.625 0.375 0  0.65625 0.375 0  0.6875 0.375 0  0.71875 0.375 0  0.75 0.375 0  0.78125 0.375 0  0.8125 0.375 0  0.84375 0.375 0  0.875 0.375 0  0.90625 0.375 0  0.9375 0.375 0  0.96875 0.375 0  1 0.375 0  0 0.40625 0  0.03125 0.40625 0  0.0625 0.40625 0  0.09375 0.40625 0  0.125 0.40625 0  0.15625 0.40625 0  0.1875 0.40625 0  0.21875 0.40625 0  0.25 0.40625 0  0.28125 0.40625 0  0.3125 0.40625 0  0.34375 0.40625 0  0.375 0.40625 0  0.40625 0.40625 0  0.4375 0.40625 0  0.46875 0.40625 0  0.5 0.40625 0  0.53125 0.40625 0  0.5625 0.40625 0  0.59375 0.40625 0  0.625 0.40625 0  0.65625 0.40625 0  0.6875 0.40625 0  0.71875 0.40625 0  0.75 0.40625 0  0.78125 0.40625 0  0.8125 0.40625 0  0.84375 0.40625 0  0.875 0.40625 0  0.90625 0.40625 0  0.9375 0.40625 0  0.96875 0.40625 0  1 0.40625 0  0 0.4375 0  0.03125 0.4375 0  0.0625 0.4375 0  0.09375 0.4375 0  0.125 0.4375 0  0.15625 0.4375 0  0.1875 0.4375 0  0.21875 0.4375 0  0.25 0.4375 0  0.28125 0.4375 0  0.3125 0.4375 0  0.34375 0.4375 0  0.375 0.4375 0  0.40625 0.4375 0  0.4375 0.4375 0  0.46875 0.4375 0  0.5 0.4375 0  0.53125 0.4375 0  0.5625 0.4375 0  0.59375 0.4375 0  0.625 0.4375 0  0.65625 0.4375 0  0.6875 0.4375 0  0.71875 0.4375 0  0.75 0.4375 0  0.78125 0.4375 0  0.8125 0.4375 0  0.84375 0.4375 0  0.875 0.4375 0  0.90625 0.4375 0  0.9375 0.4375 0  0.96875 0.4375 0  1 0.4375 0  0 0.46875 0  0.03125 0.46875 0  0.0625 0.46875 0  0.09375 0.46875 0  0.125 0.46875 0  0.15625 0.46875 0  0.1875 0.46875 0  0.21875 0.46875 0  0.25 0.46875 0  0.28125 0.46875 0  0.3125 0.46875 0  0.34375 0.46875 0  0.375 0.46875 0  0.40625 0.46875 0  0.4375 0.46875 0  0.46875 0.46875 0  0.5 0.46875 0  0.53125 0.46875 0  0.5625 0.46875 0  0.59375 0.46875 0  0.625 0.46875 0  0.65625 0.46875 0  0.6875 0.46875 0  0.71875 0.46875 0  0.75 0.46875 0  0.78125 0.46875 0  0.8125 0.46875 0  0.84375 0.46875 0  0.875 0.46875 0  0.90625 0.46875 0  0.9375 0.46875 0  0.96875 0.46875 0  1 0.46875 0  0 0.5 0  0.03125 0.5 0  0.0625 0.5 0  0.09375 0.5 0  0.125 0.5 0  0.15625 0.5 0  0.1875 0.5 0  0.21875 0.5 0  0.25 0.5 0  0.28125 0.5 0  0.3125 0.5 0  0.34375 0.5 0  0.375 0.5 0  0.40625 0.5 0  0.4375 0.5 0  0.46875 0.5 0  0.5 0.5 0  0.53125 0.5 0  0.5625 0.5 0  0.59375 0.5 0  0.625 0.5 0  0.65625 0.5 0  0.6875 0.5 0  0.71875 0.5 0  0.75 0.5 0  0.78125 0.5 0  0.8125 0.5 0  0.84375 0.5 0  0.875 0.5 0  0.90625 0.5 0  0.9375 0.5 0  0.96875 0.5 0  1 0.5 0  0 0.53125 0  0.03125 0.53125 0  0.0625 0.53125 0  0.09375 0.53125 0  0.125 0.53125 0  0.15625 0.53125 0  0.1875 0.53125 0  0.21875 0.53125 0  0.25 0.53125 0  0.28125 0.53125 0  0.3125 0.53125 0  0.34375 0.53125 0  0.375 0.53125 0  0.40625 0.53125 0  0.4375 0.53125 0  0.46875 0.53125 0  0.5 0.53125 0  0.53125 0.53125 0  0.5625 0.53125 0  0.59375 0.53125 0  0.625 0.53125 0  0.65625 0.53125 0  0.6875 0.53125 0  0.71875 0.53125 0  0.75 0.53125 0  0.78125 0.531
[...]
<PointData  Scalars="eigenfunction"> 
<DataArray  type="Float64"  Name="eigenfunction"  format="ascii">0.0000000000000000e+00  0.0000000000000000e+00  0.0000000000000000e+00  0.0000000000000000e+00  0.0000000000000000e+00  0.0000000000000000e+00  0.0000000000000000e+00  0.0000000000000000e+00  0.0000000000000000e+00  0.0000000000000000e+00  0.0000000000000000e+00  0.0000000000000000e+00  0.0000000000000000e+00  0.0000000000000000e+00  0.0000000000000000e+00  0.0000000000000000e+00  0.0000000000000000e+00  0.0000000000000000e+00  0.0000000000000000e+00  0.0000000000000000e+00  0.0000000000000000e+00  0.0000000000000000e+00  0.0000000000000000e+00  0.0000000000000000e+00  0.0000000000000000e+00  0.0000000000000000e+00  0.0000000000000000e+00  0.0000000000000000e+00  0.0000000000000000e+00  0.0000000000000000e+00  0.0000000000000000e+00  0.0000000000000000e+00  0.0000000000000000e+00  0.0000000000000000e+00  -1.3083642756916403e-01  -2.1842675104855089e-01  -2.6012553032176200e-01  -2.9013687406721889e-01  -3.5964566794883923e-01  -5.0313777316981723e-01  -7.1247425430892530e-01  -9.3569552627795882e-01  -1.1026892105075283e+00  -1.1634898221640526e+00  -1.1168799537668761e+00  -1.0120845369428288e+00  -9.2182228409439659e-01  -9.0176268625811917e-01  -9.5963359432736994e-01  -1.0519086762872825e+00  -1.1101535073321047e+00  -1.0818991735237864e+00  -9.6237257822264832e-01  -7.9856830718737482e-01  -6.6307060360455161e-01  -6.1253057640607678e-01  -6.5464540969810903e-01  -7.4268991728666178e-01  -8.0087952786699057e-01  -7.6619652968951235e-01  -6.2294723259104834e-01  -4.1058669307290813e-01  -2.0072846208991141e-01  -5.6858029092562899e-02  -4.5166925291493017e-10  0.0000000000000000e+00  0.0000000000000000e+00  -2.1842675188161959e-01  -3.4908644945822465e-01  -3.7703303839915375e-01  -3.6719897519890921e-01  -4.2489460287159370e-01  -6.2732712295707105e-01  -9.6863712355273468e-01  -1.3534811037701182e+00  -1.6452460161132842e+00  -1.7419072787670971e+00  -1.6351549767917133e+00  -1.4172806137045109e+00  -1.2304629562194149e+00  -1.1868863766905591e+00  -1.3056473655037046e+00  -1.5031772377658981e+00  -1.6431055057399977e+00  -1.6169651765350435e+00  -1.4090267349358843e+00  -1.1074830072235986e+00  -8.5511319624237381e-01  -7.6756224880201862e-01  -8.6620296770868233e-01  -1.0642905881013214e+00  -1.2145463251133717e+00  -1.1910831446885528e+00  -9.5901545884234962e-01  -5.9237108746295586e-01  -2.3072122919079788e-01  -1.4391238606128388e-09  5.6858027468366233e-02  0.0000000000000000e+00  0.0000000000000000e+00  -2.6012553318918719e-01  -3.7703304164474666e-01  -3.1488295341367806e-01  -1.6651554704505914e-01  -9.6252168649746797e-02  -2.3546591584150936e-01  -5.9485316095686946e-01  -1.0479242129063651e+00  -1.3978058171731962e+00  -1.4893344448305224e+00  -1.3005256926195319e+00  -9.5860386941715225e-01  -6.6957444942430067e-01  -6.0114941197388372e-01  -7.8674637518199186e-01  -1.1066821283855870e+00  -1.3581145691332537e+00  -1.3736555388941301e+00  -1.1200104901473755e+00  -7.1924877706840451e-01  -3.7994667017212258e-01  -2.7760739350181357e-01  -4.5319575731559386e-01  -7.8827677334295065e-01  -1.0711415909881628e+00  -1.1159888647895002e+00  -8.6691557717134915e-01  -4.2753095663486090e-01  -2.0339944312135426e-09  2.3072122572049669e-01  2.0072846009610540e-01  0.0000000000000000e+00  0.0000000000000000e+00  -2.9013687996540272e-01  -3.6719898372166865e-01  -1.6651555338664339e-01  1.9354999878578585e-01  4.8465596048947351e-01  5.0976304988632215e-01  2.2715131462491281e-01  -2.1813041272817882e-01  -5.7549602400706068e-01  -6.3551017217602734e-01  -3.5530170438197894e-01  1.1222722725996841e-01  5.0405336825816172e-01  5.9854098353319085e-01  3.4458880136641812e-01  -1.0739498165007152e-01  -4.9156841024217335e-01  -5.8041326707305585e-01  -3.1711507761771723e-01  1.5040272467844534e-01  5.5386308270317919e-01  6.5888686149908748e-01  4.0007892676060430e-01  -8.0969858129549419e-02  -5.1652106548540377e-01  -6.6555604184835571e-01  -4.5058151731846136e-01  -1.5422868546436254e-09  4.2753095292377791e-01  5.9237108414203732e-01  4.1058669111451213e-01  0.0000000000000000e+00  0.0000000000000000e+00  -3.5964567719896584e-01  -4.2489461738224477e-01  -9.6252182493238858e-02  4.8465595250137306e-01  1.0223291446348257e+00  1.2458055772582313e+00  1.0714792776917044e+00  6.5341376062831646e-01  2.9135754195834274e-01  2.5114386469512340e-01  6.0410238668537430e-01  1.1809948348174466e+00  1.6684891380502334e+00  1.7921175428263978e+00  1.4784781869730741e+00  9.0119593462358660e-01  3.8295776400952181e-01  2.1006184945166773e-01  4.6715480996899134e-01  9.8826561968421900e-01  1.4526817307353777e+00  1.5700947974383956e+00  1.2477494156108069e+00  6.4301420681967791e-01  7.1439662699394432e-02  -1.7592343939868188e-01  -1.2388788112373201e-10  4.5058151558690529e-01  8.6691557454909729e-01  9.5901545626624918e-01  6.2294723100302418e-01  0.0000000000000000e+00  0.0000000000000000e+00  -5.0313778525909025e-01  -6.2732714250838995e-01  -2.3546593589036285e-01  5.0976303548936663e-01  1.2458055710987332e+00  1.6250675577063636e+00  1.5173724965021160e+00  1.0814279349786602e+00  6.6477275744182840e-01  5.9284657772975236e-01  9.7260169757530823e-01  1.6267511112534654e+00  2.1972606928492171e+00  2.3568833545696939e+00  2.0040404924768458e+00  1.3262434087054518e+00  6.9443647018525856e-01  4.4970371903129952e-01  7.0669138128891307e-01  1.2882174450667445e+00  1.8288930086143136e+00  1.9871298975117100e+00  1.6421201241454628e+00  9.6164364575110417e-01  3.0213428391913233e-01  1.2921711206098752e-09  1.7592344069001789e-01  6.6555604169182314e-01  1.1159888635616888e+00  1.1910831431437545e+00  7.6619652864596277e-01  0.0000000000000000e+00  0.0000000000000000e+00  -7.1247426810562609e-01  -9.6863714595143169e-01  -5.9485318404685961e-01  2.2715129787220570e-01  1.0714792702629199e+00  1.5173724960528661e+00  1.3901172358857043e+00  8.5396473181663146e-01  3.0551597019733429e-01  1.3301293756114693e-01  4.8445128365355922e-01  1.1806036753796192e+00  1.8227336581425650e+00  2.0301435517355486e+00  1.6669852299927745e+00  9.2492334943315091e-01  2.1346461677572193e-01  -7.7330624919870875e-02  1.9735472078214694e-01  8.5455537781513402e-01  1.4917368258056085e+00  1.7217442552745759e+00  1.3969713450691281e+00  6.9237061154235857e-01  1.7093909647361049e-09  -3.0213428065687908e-01  -7.1439660331304042e-02  5.1652106659961250e-01  1.0711415909874118e+00  1.2145463245299795e+00  8.0087952735078682e-01  0.0000000000000000e+00  0.0000000000000000e+00  -9.3569554051597670e-01  -1.3534811265333822e+00  -1.0479242354208775e+00  -2.1813042716742537e-01  6.5341375760291154e-01  1.0814279407463423e+00  8.5396473903945014e-01  1.4516095792095898e-01  -5.9745411293293238e-01  -9.2165669987695875e-01  -6.3634814506760495e-01  8.0340194566102210e-02  7.9142323233416600e-01  1.0624004624335368e+00  7.1865622829324549e-01  -5.1961749650159761e-02  -8.1016576129939755e-01  -1.1230979747082905e+00  -8.1695445228454255e-01  -7.6602835282438025e-02  6.6490485609154626e-01  9.8075282316976031e-01  6.9896041245730867e-01  8.1206398358493246e-10  -6.9237060877921675e-01  -9.6164364262445279e-01  -6.4301420414023813e-01  8.0969859846602321e-02  7.8827677404166818e-01  1.0642905881199665e+00  7.4268991711875165e-01  0.0000000000000000e+00  0.0000000000000000e+00  -1.1026892243173003e+00  -1.6452460375293354e+00  -1.3978058366317316e+00  -5.7549603295588814e-01  2.9135754717720364e-01  6.6477277394963430e-01  3.0551598990190687e-01  -5.9745409966717444e-01  -1.5458750040678881e+00  -2.0264906078608895e+00  -1.8077166901323640e+00  -1.0670088189670173e+00  -2.7813847560711935e-01  7.1923947939868449e-02  -2.3118616182153678e-01  -1.0075204708520233e+00  -1.7939341588899709e+00  -2.1198874508094270e+00  -1.7844004910705495e+00  -9.7189593112600769e-01  -1.4076374585117019e-01  2.4776229137088729e-01  -8.2228530795646162e-10  -6.9896041236041562e-01  -1.3969713434982354e+00  -1.6421201218266581e+00  -1.2477494133755542e+00  -4.0007892519922522e-01  4.5319575804259749e-01  8.6620296783022843e-01  6.5464540961296869e-01  0.0000000000000000e+00  0.0000000000000000e+00  -1.1634898354021694e+00  -1.7419072985746773e+00  -1.4893344609247718e+00  -6.3551017534594545e-01  2.5114387840947455e-01  5.9284660524539756e-01  1.3301297013865968e-01  -9.2165667271205121e-01  -2.0264905936419000e+00  -2.6155228914216200e+00  -2.4243555577178331e+00  -1.6332885009859859e+00  -7.5153679015051544e-01  -3.1435940673031237e-01  -5.7207066045600108e-01  -1.3516044378619780e+00  -2.1679949248301642e+00  -2.5163334225546770e+00  -2.1705299390551720e+00  -1.3137620236443501e+00  -4.2637278601861922e-01  -2.1746140468696725e-09  -2.4776229437561315e-01  -9.8075282438516209e-01  -1.7217442549144812e+00  -1.9871298962655100e+00  -1.5700947961158356e+00  -6.5888686067696234e-01  2.7760739367239579e-01  7.6756224855673472e-01  6.1253057614285655e-01  0.0000000000000000e+00  0.0000000000000000e+00  -1.1168799670018474e+00  -1.6351549961717129e+00  -1.3005257072309886e+00  -3.5530170443178499e-01  6.0410240544623139e-01  9.7260173193484001e-01  4.8445132437778804e-01  -6.3634810910840922e-01  -1.8077166670209208e+00  -2.4243555489621698e+00  -2.2008370713771845e+00  -1.3257768391334477e+00  -3.4165805397955751e-01  1.7551361886123212e-01  -5.1902358517774978e-02  -8.5188927315773955e-01  -1.7162122218468323e+00  -2.1074572038424200e+00  -1.7769731335674108e+00  -9.0756052116921704e-01  -2.5021305365768518e-09  4.2637278133855649e-01  1.4076374244391948e-01  -6.6490485783411379e-01  -1.4917368261309356e+00  -1.8288930082110335e+00  -1.4526817303696398e+00  -5.5386308286478592e-01  3.7994666944954503e-01  8.5511319531897034e-01  6.6307060297754483e-01  0.0000000000000000e+00  0.0000000000000000e+00  -1.0120845511078305e+00  -1.4172806346000200e+00  -9.5860388562174303e-01  1.1222722601672286e-01  1.1809948530446683e+00  1.6267511456859562e+00  1.1806037164590979e+00  8.0340230726509240e-02  -1.0670087961510886e+00  -1.6332884931126064e+00  -1.3257768404035719e+00  -3.4710386120649633e-01  7.3076558748900300e-01  1.3016272898248884e+00  1.0726549860988073e+00  2.2365249023895362e-01  -7.1073351483181879e-01  -1.1623494749167167e+00  -8.6373932921832230e-01  -1.7682177509351558e-09  9.0756051699840423e-01  1.3137620198623439e+00  9.7189592852079709e-01  7.6602834088850130e-02  -8.5455537796375991e-01  -1.2882174449088386e+00  -9.8826561994447082e-01  -1.5040272571674396e-01  7.1924877541225773e-01  1.1074830055233575e+00  7.9856830612128815e-01  0.0000000000000000e+00  0.0000000000000000e+00  -9.2182229996573806e-01  -1.2304629802996983e+00  -6.6957446994653147e-01  5.0405336189921468e-01  1.6684891505613979e+00  2.1972607209633894e+00  1.8227336921315642e+00  7.9142326040901012e-01  -2.7813846200368891e-01  -7.5153679255272487e-01  -3.4165806631275231e-01  7.3076557604226733e-01  1.8700707079658065e+00  2.4522634592511836e+00  2.1826845852585666e+00  1.2579744062175020e+00  2.4147845692866829e-01  -2.7135020098121765e-01  -5.0780286404690522e-10  8.6373932712230483e-01  1.7769731311255859e+00  2.1705299371382001e+00  1.7844004902585402e+00  8.1695445259044441e-01  -1.9735471990947873e-01  -7.0669138068706672e-01  -4.6715481034597894e-01  3.1711507603787914e-01  1.1200104877480030e+00  1.4090267325467927e+00  9.6237257674604393e-01  0.0000000000000000e+00  0.0000000000000000e+00  -9.0176270400694625e-01  -1.1868864044414558e+00  -6.0114943780569929e-01  5.9854097038451026e-01  1.7921175471674220e+00  2.3568833731432579e+00  2.0301435747571310e+00  1.0624004780620866e+00  7.1923947653886031e-02  -3.1435942428792280e-01  1.7551359042033610e-01  1.3016272617021494e+00  2.4522634423557177e+00  2.9982931317186883e+00  2.6551831421620928e+00  1.6428237560258299e+00  5.5233926041921766e-01  6.5577651377891915e-10  2.7135020126578679e-01  1.1623494744647405e+00  2.1074572033665859e+00  2.5163334228047076e+00  2.1198874521670170e+00  1.1230979769532299e+00  7.7330627289745268e-02  -4.4970371750861116e-01  -2.1006184950341655e-01  5.8041326532781734e-01  1.3736555360422649e+00  1.6169651736522510e+00  1.0818991717332225e+00  0.0000000000000000e+00  0.0000000000000000e+00  -9.5963361335011299e-01  -1.3056473958619754e+00  -7.8674640499707260e-01  3.4458878282941652e-01  1.4784781844978969e+00  2.0040405027923121e+00  1.6669852433237722e+00  7.1865623285809999e-01  -2.3118617441018227e-01  -5.7207069133814425e-01  -5.1902401026418681e-02  1.0726549434577324e+00  2.1826845536420465e+00  2.6551831273918340e+00  2.2241766791782376e+00  1.1346081153900467e+00  1.3840730889517786e-09  -5.5233925838895470e-01  -2.4147845578879409e-01  7.1073351548991415e-01  1.7162122227784733e+00  2.1679949267345728e+00  1.7939341620112412e+00  8.1016576522642736e-01  -2.1346461299941266e-01  -6.9443646767615119e-01  -3.8295776354894956e-01  4.9156840858653533e-01  1.3581145660907221e+00  1.6431055025753474e+00  1.1101535053452338e+00  0.0000000000000000e+00  0.0000000000000000e+00  -1.0519086953938539e+00  -1.5031772684686779e+00  -1.1066821590196829e+00  -1.0739500168072294e-01  9.0119592983915398e-01  1.3262434158429159e+00  9.2492335875661136e-01  -5.1961749804828997e-02  -1.0075204887053251e+00  -1.3516044743723539e+00  -8.5188932149082408e-01  2.2365244170571041e-01  1.2579743687183185e+00  1.6428237354079491e+00  1.1346081095650562e+00  1.6269169294267125e-09  -1.1346081125157761e+00  -1.6428237540596988e+00  -1.2579744051671957e+00  -2.2365248955203101e-01  8.5188927433970163e-01  1.3516044402724667e+00  1.0075204746913549e+00  5.1961754400091521e-02  -9.2492334486594940e-01  -1.3262434055624124e+00  -9.0119593376314899e-01  1.0739498015126445e-01  1.1066821253144932e+00  1.5031772344889558e+00  1.0519086742095831e+00  0.0000000000000000e+00  0.0000000000000000e+00  -1.1101535252120600e+00  -1.6431055342358207e+00  -1.3581145969166617e+00  -4.9156842710346449e-01  3.8295776248798669e-01  6.9443648060132468e-01  2.1346462945649800e-01  -8.1016575786946265e-01  -1.7939341727738578e+00  -2.1679949568859134e+00  -1.7162122652325880e+00  -7.1073355800397520e-01  2.4147842507321735e-01  5.5233924559359071e-01  1.4008086157003449e-09  -1.1346081066725897e+00  -2.2241766769753091e+00  -2.6551831411421372e+00  -2.1826845853289711e+00  -1.0726549865684074e+00  5.1902358649054611e-02  5.7207066203090673e-01  2.3118616509572790e-01  -7.1865622384342120e-01  -1.6669852255142428e+00  -2.0040404892909494e+00  -1.4784781860201515e+00  -3.4458880278423853e-01  7.8674637215227694e-01  1.3056473622320446e+00  9.5963359224137090e-01  0.0000000000000000e+00  0.0000000000000000e+00  -1.0818991892746632e+00  -1.6169652010404760e+00  -1.3736555612255816e+00  -5.8041327741219229e-01  2.1006185526597526e-01  4.4970373753497855e-01  -7.7330603289238950e-02  -1.1230979612773972e+00  -2.1198874534938139e+00  -2.5163334422002692e+00  -2.1074572337631197e+00  -1.1623495038539045e+00  -2.7135021815883703e-01  6.7477501719989681e-10  -5.5233924352533026e-01  -1.6428237334141924e+00  -2.6551831263605075e+00  -2.9982931321821531e+00  -2.4522634610814928e+00  -1.3016272922289405e+00  -1.7551362069622725e-01  3.1435940646129629e-01  -7.1923946254438306e-02  -1.0624004592273182e+00  -2.0301435481213774e+00  -2.3568833518913865e+00  -1.7921175420905926e+00  -5.9854098497022812e-01  6.0114940902569636e-01  1.1868863735179893e+00  9.0176268423337214e-01  0.0000000000000000e+00  0.0000000000000000e+00  -9.6237259170355138e-01  -1.4090267551561477e+00  -1.1200105065959918e+00  -3.1711508087995466e-01  4.6715482381902640e-01  7.0669140879100112e-01  1.9735475257379662e-01  -8.1695442726635459e-01  -1.7844004805722113e+00  -2.1705299439670922e+00  -1.7769731474846793e+00  -8.6373934132618813e-01  -4.9946470612939345e-10  2.7135021847089635e-01  -2.4147842390324054e-01  -1.2579743676457928e+00  -2.1826845537041146e+00  -2.4522634441881110e+00  -1.8700707114758595e+00  -7.3076559184403400e-01  3.4165805003023458e-01  7.5153678775739008e-01  2.7813847532913699e-01  -7.9142323077721632e-01  -1.8227336557576874e+00  -2.1972606909424801e+00  -1.6684891376645663e+00  -5.0405336972268822e-01  6.6957444663421584e-01  1.2304629532480960e+00  9.2182228220012286e-01  0.0000000000000000e+00  0.0000000000000000e+00  -7.9856831903405978e-01  -1.1074830244155855e+00  -7.1924878950805493e-01  1.5040272602031923e-01  9.8826563855586325e-01  1.2882174781141464e+00  8.5455541600317686e-01  -7.6602802637865897e-02  -9.7189591153842492e-01  -1.3137620180535614e+00  -9.0756052351636662e-01  -1.7731481033435042e-09  8.6373933923175328e-01  1.1623495034130884e+00  7.1073355867572530e-01  -2.2365244101274620e-01  -1.0726549439345578e+00  -1.3016272641230782e+00  -7.3076558041163964e-01  3.4710385568853830e-01  1.3257768337591844e+00  1.6332884970159538e+00  1.0670088171177021e+00  -8.0340194401188170e-02  -1.1806036740584220e+00  -1.6267511099954395e+00  -1.1809948346626604e+00  -1.1222722861888011e-01  9.5860386692457222e-01  1.4172806110548297e+00  1.0120845352498316e+00  0.0000000000000000e+00  0.0000000000000000e+00  -6.6307061490220132e-01  -8.5511321258416428e-01  -3.7994668188392772e-01  5.5386308428079978e-01  1.4526817492365964e+00  1.8288930409040889e+00  1.4917368633191102e+00  6.6490488866181929e-01  -1.4076372540786344e-01  -4.2637277865254669e-01  -2.5130924619197028e-09  9.0756051932830151e-01  1.7769731450334481e+00  2.1074572332846806e+00  1.7162122661628232e+00  8.5188932266295825e-01  5.1902401132926344e-02  -1.7551359229005165e-01  3.4165806233125989e-01  1.3257768350114008e+00  2.2008370658272600e+00  2.4243555533039958e+00  1.8077166876747506e+00  6.3634814460966671e-01  -4.8445128281350597e-01  -9.7260169653936424e-01  -6.0410238645125969e-01  3.5530170335702566e-01  1.3005256905929161e+00  1.6351549745796279e+00  1.1168799523359683e+00  0.0000000000000000e+00  0.0000000000000000e+00  -6.1253058816358719e-01  -7.6756226635634583e-01  -2.7760740764899960e-01  6.5888685903191624e-01  1.5700948102064158e+00  1.9871299226898977e+00  1.7217442848966285e+00  9.8075284771770888e-01  2.4776230409358552e-01  -2.1832070193851040e-09  4.2637277395259809e-01  1.3137620142546691e+00  2.1705299420397801e+00  2.5163334424453834e+00  2.1679949587845826e+00  1.3516044767675159e+00  5.7207069288179124e-01  3.1435942397613892e-01  7.5153679011849750e-01  1.6332884891148383e+00  2.4243555445379772e+00  2.6155228878108097e+00  2.0264906059065724e+00  9.2165669971702058e-01  -1.3301293649512411e-01  -5.9284657641290728e-01  -2.5114386404977873e-01  6.3551017168825563e-01  1.4893344433864815e+00  1.7419072770551309e+00  1.1634898210229510e+00  0.0000000000000000e+00  0.0000000000000000e+00  -6.5464542235839018e-01  -8.6620298744404589e-01  -4.5319577548000384e-01  4.0007891799035089e-01  1.2477494196957801e+00  1.6421201386146842e+00  1.3969713626413076e+00  6.9896042436244366e-01  -8.2408232293753550e-10  -2.4776230710915059e-01  1.4076372198674980e-01  9.7189590892244027e-01  1.7844004797569550e+00  2.1198874548548319e+00  1.7939341758978533e+00  1.0075204925374364e+00  2.3118617766138350e-01  -7.1923946003578029e-02  2.7813846169023981e-01  1.0670087942790065e+00  1.8077166645573344e+00  2.0264905916917044e+00  1.5458750034133357e+00  5.9745411373564961e-01  -3.0551596841286804e-01  -6.6477275553092929e-01  -2.9135754074566078e-01  5.7549602409948797e-01  1.3978058162909359e+00  1.6452460148609260e+00  1.1026892096283205e+00  0.0000000000000000e+00  0.0000000000000000e+00  -7.4268993049180110e-01  -1.0642906094019813e+00  -7.8827679477178358e-01  -8.0969872420478525e-02  6.4301420297072442e-01  9.6164365021711373e-01  6.9237061776234010e-01  8.1660363543100816e-10  -6.9896042426195282e-01  -9.8075284893719228e-01  -6.6490489041240708e-01  7.6602801440297630e-02  8.1695442757795322e-01  1.1230979635382055e+00  8.1016576181416666e-01  5.1961754563493646e-02  -7.1865622841334320e-01  -1.0624004748733173e+00  -7.9142325887188314e-01  -8.0340230569666285e-02  6.36