<?xml version="1.0"?>
<VTKFile type="UnstructuredGrid"  version="0.1"  >
<UnstructuredGrid>
<Piece  NumberOfPoints="1089" NumberOfCells="2048">
<Points>
<DataArray  type="Float64"  NumberOfComponents="3"  format="ascii">0 0 0  0.03125 0 0  0.0625 0 0  0.09375 0 0  0.125 0 0  0.15625 0 0  0.1875 0 0  0.21875 0 0  0.25 0 0  0.28125 0 0  0.3125 0 0  0.34375 0 0  0.375 0 0  0.40625 0 0  0.4375 0 0  0.46875 0 0  0.5 0 0  0.53125 0 0  0.5625 0 0  0.59375 0 0  0.625 0 0  0.65625 0 0  0.6875 0 0  0.71875 0 0  0.75 0 0  0.78125 0 0  0.8125 0 0  0.84375 0 0  0.875 0 0  0.90625 0 0  0.9375 0 0  0.96875 0 0  1 0 0  0 0.03125 0  0.03125 0.03125 0  0.0625 0.03125 0  0.09375 0.03125 0  0.125 0.03125 0  0.15625 0.03125 0  0.1875 0.03125 0  0.21875 0.03125 0  0.25 0.03125 0  0.28125 0.03125 0  0.3125 0.03125 0  0.34375 0.03125 0  0.375 0.03125 0  0.40625 0.03125 0  0.4375 0.03125 0  0.46875 0.03125 0  0.5 0.03125 0  0.53125 0.03125 0  0.5625 0.03125 0  0.59375 0.03125 0  0.625 0.03125 0  0.65625 0.03125 0  0.6875 0.03125 0  0.71875 0.03125 0  0.75 0.03125 0  0.78125 0.03125 0  0.8125 0.03125 0  0.84375 0.03125 0  0.875 0.03125 0  0.90625 0.03125 0  0.9375 0.03125 0  0.96875 0.03125 0  1 0.03125 0  0 0.0625 0  0.03125 0.0625 0  0.0625 0.0625 0  0.09375 0.0625 0  0.125 0.0625 0  0.15625 0.0625 0  0.1875 0.0625 0  0.21875 0.0625 0  0.25 0.0625 0  0.28125 0.0625 0  0.3125 0.0625 0  0.34375 0.0625 0  0.375 0.0625 0  0.40625 0.0625 0  0.4375 0.0625 0  0.46875 0.0625 0  0.5 0.0625 0  0.53125 0.0625 0  0.5625 0.0625 0  0.59375 0.0625 0  0.625 0.0625 0  0.65625 0.0625 0  0.6875 0.0625 0  0.71875 0.0625 0  0.75 0.0625 0  0.78125 0.0625 0  0.8125 0.0625 0  0.84375 0.0625 0  0.875 0.0625 0  0.90625 0.0625 0  0.9375 0.0625 0  0.96875 0.0625 0  1 0.0625 0  0 0.09375 0  0.03125 0.09375 0  0.0625 0.09375 0  0.09375 0.09375 0  0.125 0.09375 0  0.15625 0.09375 0  0.1875 0.09375 0  0.21875 0.09375 0  0.25 0.09375 0  0.28125 0.09375 0  0.3125 0.09375 0  0.34375 0.09375 0  0.375 0.09375 0  0.40625 0.09375 0  0.4375 0.09375 0  0.46875 0.09375 0  0.5 0.09375 0  0.53125 0.09375 0  0.5625 0.09375 0  0.59375 0.09375 0  0.625 0.09375 0  0.65625 0.09375 0  0.6875 0.09375 0  0.71875 0.09375 0  0.75 0.09375 0  0.78125 0.09375 0  0.8125 0.09375 0  0.84375 0.09375 0  0.875 0.09375 0  0.90625 0.09375 0  0.9375 0.09375 0  0.96875 0.09375 0  1 0.09375 0  0 0.125 0  0.03125 0.125 0  0.0625 0.125 0  0.09375 0.125 0  0.125 0.125 0  0.15625 0.125 0  0.1875 0.125 0  0.21875 0.125 0  0.25 0.125 0  0.28125 0.125 0  0.3125 0.125 0  0.34375 0.125 0  0.375 0.125 0  0.40625 0.125 0  0.4375 0.125 0  0.46875 0.125 0  0.5 0.125 0  0.53125 0.125 0  0.5625 0.125 0  0.59375 0.125 0  0.625 0.125 0  0.65625 0.125 0  0.6875 0.125 0  0.71875 0.125 0  0.75 0.125 0  0.78125 0.125 0  0.8125 0.125 0  0.84375 0.125 0  0.875 0.125 0  0.90625 0.125 0  0.9375 0.125 0  0.96875 0.125 0  1 0.125 0  0 0.15625 0  0.03125 0.15625 0  0.0625 0.15625 0  0.09375 0.15625 0  0.125 0.15625 0  0.15625 0.15625 0  0.1875 0.15625 0  0.21875 0.15625 0  0.25 0.15625 0  0.28125 0.15625 0  0.3125 0.15625 0  0.34375 0.15625 0  0.375 0.15625 0  0.40625 0.15625 0  0.4375 0.15625 0  0.46875 0.15625 0  0.5 0.15625 0  0.53125 0.15625 0  0.5625 0.15625 0  0.59375 0.15625 0  0.625 0.15625 0  0.65625 0.15625 0  0.6875 0.15625 0  0.71875 0.15625 0  0.75 0.15625 0  0.78125 0.15625 0  0.8125 0.15625 0  0.84375 0.15625 0  0.875 0.15625 0  0.90625 0.15625 0  0.9375 0.15625 0  0.96875 0.15625 0  1 0.15625 0  0 0.1875 0  0.03125 0.1875 0  0.0625 0.1875 0  0.09375 0.1875 0  0.125 0.1875 0  0.15625 0.1875 0  0.1875 0.1875 0  0.21875 0.1875 0  0.25 0.1875 0  0.28125 0.1875 0  0.3125 0.1875 0  0.34375 0.1875 0  0.375 0.1875 0  0.40625 0.1875 0  0.4375 0.1875 0  0.46875 0.1875 0  0.5 0.1875 0  0.53125 0.1875 0  0.5625 0.1875 0  0.59375 0.1875 0  0.625 0.1875 0  0.65625 0.1875 0  0.6875 0.1875 0  0.71875 0.1875 0  0.75 0.1875 0  0.78125 0.1875 0  0.8125 0.1875 0  0.84375 0.1875 0  0.875 0.1875 0  0.90625 0.1875 0  0.9375 0.1875 0  0.96875 0.1875 0  1 0.1875 0  0 0.21875 0  0.03125 0.21875 0  0.0625 0.21875 0  0.09375 0.21875 0  0.125 0.21875 0  0.15625 0.21875 0  0.1875 0.21875 0  0.21875 0.21875 0  0.25 0.21875 0  0.28125 0.21875 0  0.3125 0.21875 0  0.34375 0.21875 0  0.375 0.21875 0  0.40625 0.21875 0  0.4375 0.21875 0  0.46875 0.21875 0  0.5 0.21875 0  0.53125 0.21875 0  0.5625 0.21875 0  0.59375 0.21875 0  0.625 0.21875 0  0.65625 0.21875 0  0.6875 0.21875 0  0.71875 0.21875 0  0.75 0.21875 0  0.78125 0.21875 0  0.8125 0.21875 0  0.84375 0.21875 0  0.875 0.21875 0  0.90625 0.21875 0  0.9375 0.21875 0  0.96875 0.21875 0  1 0.21875 0  0 0.25 0  0.03125 0.25 0  0.0625 0.25 0  0.09375 0.25 0  0.125 0.25 0  0.15625 0.25 0  0.1875 0.25 0  0.21875 0.25 0  0.25 0.25 0  0.28125 0.25 0  0.3125 0.25 0  0.34375 0.25 0  0.375 0.25 0  0.40625 0.25 0  0.4375 0.25 0  0.46875 0.25 0  0.5 0.25 0  0.53125 0.25 0  0.5625 0.25 0  0.59375 0.25 0  0.625 0.25 0  0.65625 0.25 0  0.6875 0.25 0  0.71875 0.25 0  0.75 0.25 0  0.78125 0.25 0  0.8125 0.25 0  0.84375 0.25 0  0.875 0.25 0  0.90625 0.25 0  0.9375 0.25 0  0.96875 0.25 0  1 0.25 0  0 0.28125 0  0.03125 0.28125 0  0.0625 0.28125 0  0.09375 0.28125 0  0.125 0.28125 0  0.15625 0.28125 0  0.1875 0.28125 0  0.21875 0.28125 0  0.25 0.28125 0  0.28125 0.28125 0  0.3125 0.28125 0  0.34375 0.28125 0  0.375 0.28125 0  0.40625 0.28125 0  0.4375 0.28125 0  0.46875 0.28125 0  0.5 0.28125 0  0.53125 0.28125 0  0.5625 0.28125 0  0.59375 0.28125 0  0.625 0.28125 0  0.65625 0.28125 0  0.6875 0.28125 0  0.71875 0.28125 0  0.75 0.28125 0  0.78125 0.28125 0  0.8125 0.28125 0  0.84375 0.28125 0  0.875 0.28125 0  0.90625 0.28125 0  0.9375 0.28125 0  0.96875 0.28125 0  1 0.28125 0  0 0.3125 0  0.03125 0.3125 0  0.0625 0.3125 0  0.09375 0.3125 0  0.125 0.3125 0  0.15625 0.3125 0  0.1875 0.3125 0  0.21875 0.3125 0  0.25 0.3125 0  0.28125 0.3125 0  0.3125 0.3125 0  0.34375 0.3125 0  0.375 0.3125 0  0.40625 0.3125 0  0.4375 0.3125 0  0.46875 0.3125 0  0.5 0.3125 0  0.53125 0.3125 0  0.5625 0.3125 0  0.59375 0.3125 0  0.625 0.3125 0  0.65625 0.3125 0  0.6875 0.3125 0  0.71875 0.3125 0  0.75 0.3125 0  0.78125 0.3125 0  0.8125 0.3125 0  0.84375 0.3125 0  0.875 0.3125 0  0.90625 0.3125 0  0.9375 0.3125 0  0.96875 0.3125 0  1 0.3125 0  0 0.34375 0  0.03125 0.34375 0  0.0625 0.34375 0  0.09375 0.34375 0  0.125 0.34375 0  0.15625 0.34375 0  0.1875 0.34375 0  0.21875 0.34375 0  0.25 0.34375 0  0.28125 0.34375 0  0.3125 0.34375 0  0.34375 0.34375 0  0.375 0.34375 0  0.40625 0.34375 0  0.4375 0.34375 0  0.46875 0.34375 0  0.5 0.34375 0  0.53125 0.34375 0  0.5625 0.34375 0  0.59375 0.34375 0  0.625 0.34375 0  0.65625 0.34375 0  0.6875 0.34375 0  0.71875 0.34375 0  0.75 0.34375 0  0.78125 0.34375 0  0.8125 0.34375 0  0.84375 0.34375 0  0.875 0.34375 0  0.90625 0.34375 0  0.9375 0.34375 0  0.96875 0.34375 0  1 0.34375 0  0 0.375 0  0.03125 0.375 0  0.0625 0.375 0  0.09375 0.375 0  0.125 0.375 0  0.15625 0.375 0  0.1875 0.375 0  0.21875 0.375 0  0.25 0.375 0  0.28125 0.375 0  0.3125 0.375 0  0.34375 0.375 0  0.375 0.375 0  0.40625 0.375 0  0.4375 0.375 0  0.46875 0.375 0  0.5 0.375 0  0.53125 0.375 0  0.5625 0.375 0  0.59375 0.375 0  0.625 0.375 0  0.65625 0.375 0  0.6875 0.375 0  0.71875 0.375 0  0.75 0.375 0  0.78125 0.375 0  0.8125 0.375 0  0.84375 0.375 0  0.875 0.375 0  0.90625 0.375 0  0.9375 0.375 0  0.96875 0.375 0  1 0.375 0  0 0.40625 0  0.03125 0.40625 0  0.0625 0.40625 0  0.09375 0.40625 0  0.125 0.40625 0  0.15625 0.40625 0  0.1875 0.40625 0  0.21875 0.40625 0  0.25 0.40625 0  0.28125 0.40625 0  0.3125 0.40625 0  0.34375 0.40625 0  0.375 0.40625 0  0.40625 0.40625 0  0.4375 0.40625 0  0.46875 0.40625 0  0.5 0.40625 0  0.53125 0.40625 0  0.5625 0.40625 0  0.59375 0.40625 0  0.625 0.40625 0  0.65625 0.40625 0  0.6875 0.40625 0  0.71875 0.40625 0  0.75 0.40625 0  0.78125 0.40625 0  0.8125 0.40625 0  0.84375 0.40625 0  0.875 0.40625 0  0.90625 0.40625 0  0.9375 0.40625 0  0.96875 0.40625 0  1 0.40625 0  0 0.4375 0  0.03125 0.4375 0  0.0625 0.4375 0  0.09375 0.4375 0  0.125 0.4375 0  0.15625 0.4375 0  0.1875 0.4375 0  0.21875 0.4375 0  0.25 0.4375 0  0.28125 0.4375 0  0.3125 0.4375 0  0.34375 0.4375 0  0.375 0.4375 0  0.40625 0.4375 0  0.4375 0.4375 0  0.46875 0.4375 0  0.5 0.4375 0  0.53125 0.4375 0  0.5625 0.4375 0  0.59375 0.4375 0  0.625 0.4375 0  0.65625 0.4375 0  0.6875 0.4375 0  0.71875 0.4375 0  0.75 0.4375 0  0.78125 0.4375 0  0.8125 0.4375 0  0.84375 0.4375 0  0.875 0.4375 0  0.90625 0.4375 0  0.9375 0.4375 0  0.96875 0.4375 0  1 0.4375 0  0 0.46875 0  0.03125 0.46875 0  0.0625 0.46875 0  0.09375 0.46875 0  0.125 0.46875 0  0.15625 0.46875 0  0.1875 0.46875 0  0.21875 0.46875 0  0.25 0.46875 0  0.28125 0.46875 0  0.3125 0.46875 0  0.34375 0.46875 0  0.375 0.46875 0  0.40625 0.46875 0  0.4375 0.46875 0  0.46875 0.46875 0  0.5 0.46875 0  0.53125 0.46875 0  0.5625 0.46875 0  0.59375 0.46875 0  0.625 0.46875 0  0.65625 0.46875 0  0.6875 0.46875 0  0.71875 0.46875 0  0.75 0.46875 0  0.78125 0.46875 0  0.8125 0.46875 0  0.84375 0.46875 0  0.875 0.46875 0  0.90625 0.46875 0  0.9375 0.46875 0  0.96875 0.46875 0  1 0.46875 0  0 0.5 0  0.03125 0.5 0  0.0625 0.5 0  0.09375 0.5 0  0.125 0.5 0  0.15625 0.5 0  0.1875 0.5 0  0.21875 0.5 0  0.25 0.5 0  0.28125 0.5 0  0.3125 0.5 0  0.34375 0.5 0  0.375 0.5 0  0.40625 0.5 0  0.4375 0.5 0  0.46875 0.5 0  0.5 0.5 0  0.53125 0.5 0  0.5625 0.5 0  0.59375 0.5 0  0.625 0.5 0  0.65625 0.5 0  0.6875 0.5 0  0.71875 0.5 0  0.75 0.5 0  0.78125 0.5 0  0.8125 0.5 0  0.84375 0.5 0  0.875 0.5 0  0.90625 0.5 0  0.9375 0.5 0  0.96875 0.5 0  1 0.5 0  0 0.53125 0  0.03125 0.53125 0  0.0625 0.53125 0  0.09375 0.53125 0  0.125 0.53125 0  0.15625 0.53125 0  0.1875 0.53125 0  0.21875 0.53125 0  0.25 0.53125 0  0.28125 0.53125 0  0.3125 0.53125 0  0.34375 0.53125 0  0.375 0.53125 0  0.40625 0.53125 0  0.4375 0.53125 0  0.46875 0.53125 0  0.5 0.53125 0  0.53125 0.53125 0  0.5625 0.53125 0  0.59375 0.53125 0  0.625 0.53125 0  0.65625 0.53125 0  0.6875 0.53125 0  0.71875 0.53125 0  0.75 0.53125 0  0.78125 0.531
[...]
<PointData  Scalars="eigenfunction"> 
<DataArray  type="Float64"  Name="eigenfunction"  format="ascii">0.0000000000000000e+00  0.0000000000000000e+00  0.0000000000000000e+00  0.0000000000000000e+00  0.0000000000000000e+00  0.0000000000000000e+00  0.0000000000000000e+00  0.0000000000000000e+00  0.0000000000000000e+00  0.0000000000000000e+00  0.0000000000000000e+00  0.0000000000000000e+00  0.0000000000000000e+00  0.0000000000000000e+00  0.0000000000000000e+00  0.0000000000000000e+00  0.0000000000000000e+00  0.0000000000000000e+00  0.0000000000000000e+00  0.0000000000000000e+00  0.0000000000000000e+00  0.0000000000000000e+00  0.0000000000000000e+00  0.0000000000000000e+00  0.0000000000000000e+00  0.0000000000000000e+00  0.0000000000000000e+00  0.0000000000000000e+00  0.0000000000000000e+00  0.0000000000000000e+00  0.0000000000000000e+00  0.0000000000000000e+00  0.0000000000000000e+00  0.0000000000000000e+00  -4.0361924860133171e-13  8.9578444356388814e-02  3.0528484417477997e-01  6.1820364560110064e-01  9.4585679119709776e-01  1.1876428795608838e+00  1.2681856822558988e+00  1.1693858300295794e+00  9.3711596861030932e-01  6.5992813220309099e-01  4.2965556101488878e-01  3.0175812296365728e-01  2.7313954850733269e-01  2.8708105269884054e-01  2.6259897109656760e-01  1.3454057474897621e-01  -1.1397104054232959e-01  -4.4147686376896506e-01  -7.6495101376308994e-01  -9.9563006598262127e-01  -1.0775421145429895e+00  -1.0112683803171860e+00  -8.5229209660313632e-01  -6.8488610621736878e-01  -5.8356634011501007e-01  -5.7967341540806017e-01  -6.4817252191321051e-01  -7.2047226893590055e-01  -7.1723769074149857e-01  -5.8622376041838975e-01  -3.2818740125137785e-01  0.0000000000000000e+00  0.0000000000000000e+00  -8.9578444357807263e-02  -1.2297444872797587e-12  3.4464102114898504e-01  8.9367545222458977e-01  1.4903118257379184e+00  1.9393729447928254e+00  2.0919387995063596e+00  1.9091715010152701e+00  1.4771887539123607e+00  9.6696785185718470e-01  5.5788477936246161e-01  3.5954765160897717e-01  3.6692634886431724e-01  4.6838810910589168e-01  5.0218496433358373e-01  3.3512175172877318e-01  -7.2613872681128233e-02  -6.4585517539720194e-01  -1.2256252665269676e+00  -1.6385900509715150e+00  -1.7730570814180664e+00  -1.6270463438559895e+00  -1.3068743494995452e+00  -9.7728598924793642e-01  -7.8611941902872451e-01  -7.9784391265537147e-01  -9.6599864669434299e-01  -1.1566647513047899e+00  -1.2118634919131515e+00  -1.0237943552881770e+00  -5.8622376042065327e-01  0.0000000000000000e+00  0.0000000000000000e+00  -3.0528484417654828e-01  -3.4464102115195105e-01  -1.6641930341979949e-12  6.6521055329452450e-01  1.4323081243859068e+00  2.0230864788424796e+00  2.2217763756926261e+00  1.9686238970428431e+00  1.3836237703696934e+00  7.1056119429009013e-01  2.0728869160509591e-01  3.1998272434557197e-02  1.7651846165927568e-01  4.7597148819121005e-01  6.8941661755178174e-01  6.1413017410733550e-01  1.8133878997707567e-01  -5.0990255556471953e-01  -1.2356048259109911e+00  -1.7465120870208930e+00  -1.8789561773927483e+00  -1.6265808974578126e+00  -1.1407328752846464e+00  -6.5990027754713942e-01  -4.0074709336836745e-01  -4.6044447655670134e-01  -7.7446443241198437e-01  -1.1484601673486210e+00  -1.3490697388542494e+00  -1.2118634919228368e+00  -7.1723769074973487e-01  0.0000000000000000e+00  0.0000000000000000e+00  -6.1820364560301322e-01  -8.9367545222762779e-01  -6.6521055329751566e-01  -9.7058898601767864e-13  8.3609401812580253e-01  1.4971517967662036e+00  1.7109311584194988e+00  1.3986487403092378e+00  7.0747608955060393e-01  -5.8023720772594899e-02  -5.7383283100662619e-01  -6.4121356510718730e-01  -2.7315435846054997e-01  3.1575031823166566e-01  8.1040864444144722e-01  9.4074898098807080e-01  6.0540697001659494e-01  -8.2235882302839972e-02  -8.4589311571209136e-01  -1.3718427680623830e+00  -1.4505973663826215e+00  -1.0704299656151921e+00  -4.2071631283720801e-01  1.9573283540177119e-01  5.0088198067440526e-01  3.6713332005586946e-01  -1.2645279652207794e-01  -7.3227374737107609e-01  -1.1484601673686725e+00  -1.1566647513310828e+00  -7.2047226895358907e-01  0.0000000000000000e+00  0.0000000000000000e+00  -9.4585679119910282e-01  -1.4903118257408994e+00  -1.4323081243883236e+00  -8.3609401812631878e-01  9.5534649630542118e-13  6.7935394545406214e-01  8.8579278857398458e-01  5.2475122386092754e-01  -2.3626367908169565e-01  -1.0453860527928667e+00  -1.5264941426438283e+00  -1.4490679490053169e+00  -8.3125059779765287e-01  6.9826664455422890e-02  8.7524870563385748e-01  1.2553584672353399e+00  1.0770107742794908e+00  4.6071094657288331e-01  -2.7746471901581510e-01  -7.7194804399185990e-01  -7.7488017107260920e-01  -2.6846081639891856e-01  5.2811588967136613e-01  1.2595126906479250e+00  1.5963124086298002e+00  1.3842503028075950e+00  7.1294321400092386e-01  -1.2645279654849065e-01  -7.7446443245680274e-01  -9.6599864674037517e-01  -6.4817252194194286e-01  0.0000000000000000e+00  0.0000000000000000e+00  -1.1876428795631095e+00  -1.9393729447959887e+00  -2.0230864788446499e+00  -1.4971517967657024e+00  -6.7935394545021310e-01  3.2996949943344943e-12  1.9414430054003809e-01  -2.0339706503298752e-01  -1.0117640790662490e+00  -1.8460753642064898e+00  -2.2929156129184469e+00  -2.0984071728686153e+00  -1.2839439014947045e+00  -1.3768137049714838e-01  9.1380697679176004e-01  1.4952182580981994e+00  1.4476618505399343e+00  8.9492796426498744e-01  1.8169200600797497e-01  -2.8741590757689323e-01  -2.3423645078644231e-01  3.6572632454403303e-01  1.2726646012291694e+00  2.0924198927804496e+00  2.4562549787437695e+00  2.1882464175683336e+00  1.3842503027860964e+00  3.6713332000724513e-01  -4.6044447662292581e-01  -7.9784391271881094e-01  -5.7967341544667261e-01  0.0000000000000000e+00  0.0000000000000000e+00  -1.2681856822585960e+00  -2.0919387995101983e+00  -2.2217763756952800e+00  -1.7109311584189482e+00  -8.8579278856942623e-01  -1.9414430053222223e-01  4.5876296851184187e-12  -4.1775236351876349e-01  -1.2603811107253531e+00  -2.1248195091724971e+00  -2.5755775979700108e+00  -2.3434081136953280e+00  -1.4491705302566502e+00  -1.9704248131413832e-01  9.5959667787903891e-01  1.6187500411329094e+00  1.6061413730112437e+00  1.0478817277347034e+00  3.0725631767556877e-01  -1.8492662261082884e-01  -1.2890368135430560e-01  5.0680840249973580e-01  1.4714636621748560e+00  2.3470486768935270e+00  2.7391261490489249e+00  2.4562549787404611e+00  1.5963124086025200e+00  5.0088198061668032e-01  -4.0074709344575721e-01  -7.8611941910252903e-01  -5.8356634015993003e-01  0.0000000000000000e+00  0.0000000000000000e+00  -1.1693858300330033e+00  -1.9091715010203012e+00  -1.9686238970467635e+00  -1.3986487403096952e+00  -5.2475122385701534e-01  2.0339706504032420e-01  4.1775236352719886e-01  3.4767474171435204e-12  -8.6406787866530088e-01  -1.7685079113843465e+00  -2.2715338346230021e+00  -2.0967566840274334e+00  -1.2602376135963955e+00  -6.5794244384949852e-02  1.0293600056345462e+00  1.6178671105389428e+00  1.5224485191349604e+00  8.7172569207273320e-01  3.7693544349283868e-02  -5.3632025297355912e-01  -5.3877997233372465e-01  6.8167884764553613e-02  1.0322553124875173e+00  1.9270626891236025e+00  2.3470486769155068e+00  2.0924198927962379e+00  1.2595126906343233e+00  1.9573283535125735e-01  -6.5990027762288228e-01  -9.7728598932322430e-01  -6.8488610626403945e-01  0.0000000000000000e+00  0.0000000000000000e+00  -9.3711596861461233e-01  -1.4771887539188966e+00  -1.3836237703753593e+00  -7.0747608955271868e-01  2.3626367908413592e-01  1.0117640790720843e+00  1.2603811107317866e+00  8.6406787866920109e-01  -3.0431032991590821e-13  -9.3867975558012606e-01  -1.5204668318314269e+00  -1.4711992999662318e+00  -7.9915407360175073e-01  2.0739654063809412e-01  1.1093859574943474e+00  1.5146132026323935e+00  1.2543785884061078e+00  4.5900864716227613e-01  -5.0200802330653427e-01  -1.1880849650137395e+00  -1.2874266140610833e+00  -7.5788009629103725e-01  1.5523577337034167e-01  1.0322553125296092e+00  1.4714636622369861e+00  1.2726646012803291e+00  5.2811588968580547e-01  -4.2071631286822764e-01  -1.1407328753488801e+00  -1.3068743495693291e+00  -8.5229209664789929e-01  0.0000000000000000e+00  0.0000000000000000e+00  -6.5992813220825941e-01  -9.6696785186520651e-01  -7.1056119429747999e-01  5.8023720768858721e-02  1.0453860527939094e+00  1.8460753642109640e+00  2.1248195091771382e+00  1.7685079113854325e+00  9.3867975557518768e-01  -5.4901490627050692e-12  -6.4358460264435280e-01  -7.3113269415886695e-01  -2.6270856251001617e-01  5.0089148817492790e-01  1.1571693236323075e+00  1.3461411985547047e+00  9.1619674648058758e-01  -4.0216661408480747e-03  -1.0609100763094925e+00  -1.8337659808079552e+00  -2.0237600229104875e+00  -1.5880661421422753e+00  -7.5788009624603281e-01  6.8167884851367003e-02  5.0680840260449178e-01  3.6572632463306898e-01  -2.6846081635378183e-01  -1.0704299656239447e+00  -1.6265808975078746e+00  -1.6270463439180951e+00  -1.0112683803587772e+00  0.0000000000000000e+00  0.0000000000000000e+00  -4.2965556102076102e-01  -5.5788477937165726e-01  -2.0728869161374619e-01  5.7383283100190974e-01  1.5264941426443532e+00  2.2929156129227581e+00  2.5755775979744504e+00  2.2715338346232818e+00  1.5204668318245282e+00  6.4358460262991313e-01  -9.7026137227603505e-12  -1.7481580045436382e-01  1.2495671407637804e-01  6.7387255471681895e-01  1.1196636815189895e+00  1.1469268127768366e+00  6.2568360424129665e-01  -3.2338661435606869e-01  -1.3777939576461162e+00  -2.1550140945109875e+00  -2.3833034947411234e+00  -2.0237600228844204e+00  -1.2874266139887760e+00  -5.3877997221852447e-01  -1.2890368122161794e-01  -2.3423645067223728e-01  -7.7488017100719297e-01  -1.4505973663770839e+00  -1.8789561774342260e+00  -1.7730570814759146e+00  -1.0775421145829769e+00  0.0000000000000000e+00  0.0000000000000000e+00  -3.0175812297000554e-01  -3.5954765161890673e-01  -3.1998272443826380e-02  6.4121356510235861e-01  1.4490679490064977e+00  2.0984071728743712e+00  2.3434081137017566e+00  2.0967566840297907e+00  1.4711992999609642e+00  7.3113269414515536e-01  1.7481580043453854e-01  -1.0679507940086463e-11  2.1429431297488760e-01  6.3206054587629312e-01  9.6055202115613614e-01  9.3700805212103977e-01  4.5433125499672417e-01  -3.8281624080107601e-01  -1.2986119174798472e+00  -1.9664287939032226e+00  -2.1550140945193057e+00  -1.8337659807882025e+00  -1.1880849649444649e+00  -5.3632025285807527e-01  -1.8492662247572231e-01  -2.8741590745997736e-01  -7.7194804392511707e-01  -1.3718427680576843e+00  -1.7465120870649689e+00  -1.6385900510324023e+00  -9.9563006602457282e-01  0.0000000000000000e+00  0.0000000000000000e+00  -2.7313954851395411e-01  -3.6692634887461095e-01  -1.7651846166866939e-01  2.7315435845622166e-01  8.3125059780028587e-01  1.2839439015030361e+00  1.4491705302667326e+00  1.2602376136032256e+00  7.9915407360135737e-01  2.6270856250110214e-01  -1.2495671409191678e-01  -2.1429431299276569e-01  -7.6474347583508420e-12  3.7476355987653198e-01  6.8322040786084293e-01  7.2057902064278134e-01  4.0233907965075782e-01  -1.9065519107214299e-01  -8.4290287625444671e-01  -1.2986119175227553e+00  -1.3777939576954357e+00  -1.0609100763269321e+00  -5.0200802326941096e-01  3.7693544437823752e-02  3.0725631778809726e-01  1.8169200610532038e-01  -2.7746471896680608e-01  -8.4589311572367243e-01  -1.2356048259692642e+00  -1.2256252665985965e+00  -7.6495101381084341e-01  0.0000000000000000e+00  0.0000000000000000e+00  -2.8708105270561018e-01  -4.6838810911636647e-01  -4.7597148820058688e-01  -3.1575031823546512e-01  -6.9826664451410142e-02  1.3768137050800458e-01  1.9704248132806451e-01  6.5794244396945617e-02  -2.0739654063219684e-01  -5.0089148817680595e-01  -6.7387255472508201e-01  -6.3206054588719729e-01  -3.7476355988562010e-01  -1.9663774393282805e-12  3.3680003497887590e-01  4.9321415590021439e-01  4.0744116748391496e-01  1.3099320179995447e-01  -1.9065519113304516e-01  -3.8281624090361444e-01  -3.2338661446207095e-01  -4.0216662104397890e-03  4.5900864715277695e-01  8.7172569212032691e-01  1.0478817278113473e+00  8.9492796433055499e-01  4.6071094659349948e-01  -8.2235882339447619e-02  -5.0990255564381770e-01  -6.4585517548401306e-01  -4.4147686382476758e-01  0.0000000000000000e+00  0.0000000000000000e+00  -2.6259897110341740e-01  -5.0218496434421023e-01  -6.8941661756131933e-01  -8.1040864444526262e-01  -8.7524870562945511e-01  -9.1380697677976297e-01  -9.5959667786286029e-01  -1.0293600056189063e+00  -1.1093859574833138e+00  -1.1571693236277132e+00  -1.1196636815198668e+00  -9.6055202115937555e-01  -6.8322040786270521e-01  -3.3680003497665939e-01  3.4488784258328772e-12  2.5169640031817342e-01  3.8081114739044591e-01  4.0744116743133324e-01  4.0233907953785369e-01  4.5433125484375259e-01  6.2568360408760515e-01  9.1619674636707427e-01  1.2543785883570091e+00  1.5224485191472266e+00  1.6061413730562930e+00  1.4476618505769494e+00  1.0770107742741903e+00  6.0540696995691834e-01  1.8133878987867263e-01  -7.2613872782079605e-02  -1.1397104060567931e-01  0.0000000000000000e+00  0.0000000000000000e+00  -1.3454057475581316e-01  -3.3512175173950498e-01  -6.1413017411726434e-01  -9.4074898099265558e-01  -1.2553584672320037e+00  -1.4952182580872744e+00  -1.6187500411173472e+00  -1.6178671105229450e+00  -1.5146132026196137e+00  -1.3461411985468175e+00  -1.1469268127730687e+00  -9.3700805211882077e-01  -7.2057902063916102e-01  -4.9321415589333434e-01  -2.5169640030811347e-01  5.6940667612747298e-12  2.5169640029753348e-01  4.9321415582714329e-01  7.2057902050988865e-01  9.3700805194906744e-01  1.1469268126056142e+00  1.3461411984254268e+00  1.5146132025692762e+00  1.6178671105385778e+00  1.6187500411661406e+00  1.4952182581236659e+00  1.2553584672185232e+00  9.4074898091717785e-01  6.1413017399882197e-01  3.3512175161998570e-01  1.3454057468126859e-01  0.0000000000000000e+00  0.0000000000000000e+00  1.1397104053571938e-01  7.2613872670567306e-02  -1.8133878998731454e-01  -6.0540697002236021e-01  -1.0770107742783899e+00  -1.4476618505321692e+00  -1.6061413729993161e+00  -1.5224485191224151e+00  -1.2543785883959198e+00  -9.1619674647394245e-01  -6.2568360423728919e-01  -4.5433125499307608e-01  -4.0233907964517568e-01  -4.0744116747539733e-01  -3.8081114737989946e-01  -2.5169640028737877e-01  3.5239680107365039e-12  3.3680003492656313e-01  6.8322040774879178e-01  9.6055202100501247e-01  1.1196636813683680e+00  1.1571693235229457e+00  1.1093859574498774e+00  1.0293600056509129e+00  9.5959667792648651e-01  9.1380697682849910e-01  8.7524870562521628e-01  8.1040864437581739e-01  6.8941661744612581e-01  5.0218496422597336e-01  2.6259897102913149e-01  0.0000000000000000e+00  0.0000000000000000e+00  4.4147686376295814e-01  6.4585517538743631e-01  5.0990255555481478e-01  8.2235882296269699e-02  -4.6071094657420009e-01  -8.9492796426135690e-01  -1.0478817277283075e+00  -8.7172569206645201e-01  -4.5900864715826234e-01  4.0216661421587788e-03  3.2338661435604527e-01  3.8281624080204452e-01  1.9065519107602344e-01  -1.3099320179284382e-01  -4.0744116742269326e-01  -4.9321415582007772e-01  -3.3680003492417526e-01  -1.9185095561405121e-12  3.7476355981661813e-01  6.3206054577654891e-01  6.7387255461596429e-01  5.0089148811270201e-01  2.0739654063715443e-01  -6.5794244329426252e-02  -1.9704248123239004e-01  -1.3768137043118772e-01  6.9826664470879887e-02  3.1575031818505978e-01  4.7597148809959089e-01  4.6838810900745187e-01  2.8708105263587835e-01  0.0000000000000000e+00  0.0000000000000000e+00  7.6495101375816632e-01  1.2256252665188900e+00  1.2356048259025918e+00  8.4589311570596848e-01  2.7746471901317626e-01  -1.8169200600778462e-01  -3.0725631767462064e-01  -3.7693544349925050e-02  5.0200802330295757e-01  1.0609100763034083e+00  1.3777939576395946e+00  1.2986119174755890e+00  8.4290287625435301e-01  1.9065519113706234e-01  -4.0233907953202441e-01  -7.2057902050600120e-01  -6.8322040775047843e-01  -3.7476355982570575e-01  -7.7450974573016440e-12  2.1429431293414453e-01  1.2495671403249199e-01  -2.6270856251864616e-01  -7.9915407355356627e-01  -1.2602376134968423e+00  -1.4491705301360989e+00  -1.2839439013949960e+00  -8.3125059775331678e-01  -2.7315435848318176e-01  1.7651846158638354e-01  3.6692634877881064e-01  2.7313954845098071e-01  0.0000000000000000e+00  0.0000000000000000e+00  9.9563006597920067e-01  1.6385900509659905e+00  1.7465120870153199e+00  1.3718427680584508e+00  7.7194804398995975e-01  2.8741590757584556e-01  1.8492662260844531e-01  5.3632025296779051e-01  1.1880849650038612e+00  1.8337659807951820e+00  2.1550140944981564e+00  1.9664287938936207e+00  1.2986119175185871e+00  3.8281624090481658e-01  -4.5433125483976322e-01  -9.3700805194651571e-01  -9.6055202100806736e-01  -6.3206054578752069e-01  -2.1429431295236284e-01  -1.0949680667459623e-11  -1.7481580045914691e-01  -7.3113269413117876e-01  -1.4711992998854813e+00  -2.0967566838992897e+00  -2.3434081135497005e+00  -2.0984071727465663e+00  -1.4490679489407854e+00  -6.4121356511176053e-01  3.1998272376893337e-02  3.5954765153469664e-01  3.0175812291331727e-01  0.0000000000000000e+00  0.0000000000000000e+00  1.0775421145412181e+00  1.7730570814155147e+00  1.8789561773908727e+00  1.4505973663823679e+00  7.7488017107363982e-01  2.3423645078701491e-01  1.2890368135193953e-01  5.3877997232639085e-01  1.2874266140483634e+00  2.0237600228941122e+00  2.3833034947245544e+00  2.1550140945064458e+00  1.3777939576889935e+00  3.2338661446229977e-01  -6.2568360408321555e-01  -1.1469268126014676e+00  -1.1196636813690357e+00  -6.7387255462430462e-01  -1.2495671404841670e-01  1.7481580043871481e-01  -1.0036831668079735e-11  -6.4358460261357597e-01  -1.5204668317496490e+00  -2.2715338344955764e+00  -2.5755775978256423e+00  -2.2929156127966648e+00  -1.5264941425774248e+00  -5.7383283100700333e-01  2.0728869155304067e-01  5.5788477929352009e-01  4.2965556096782609e-01  0.0000000000000000e+00  0.0000000000000000e+00  1.0112683803167659e+00  1.6270463438560230e+00  1.6265808974594815e+00  1.0704299656190541e+00  2.6846081640419023e-01  -3.6572632453952481e-01  -5.0680840249882675e-01  -6.8167884769502612e-02  7.5788009627974307e-01  1.5880661421264781e+00  2.0237600228678696e+00  1.8337659807752447e+00  1.0609100763208112e+00  4.0216662119365301e-03  -9.1619674636006376e-01  -1.3461411984171401e+00  -1.1571693235180978e+00  -5.0089148811460549e-01  2.6270856250940328e-01  7.3113269411693149e-01  6.4358460259856864e-01  -5.7024032972170283e-12  -9.3867975552980132e-01  -1.7685079112880158e+00  -2.1248195090569326e+00  -1.8460753641089080e+00  -1.0453860527443117e+00  -5.8023720784010357e-02  7.1056119423278785e-01  9.6696785178673028e-01  6.5992813215601920e-01  0.0000000000000000e+00  0.0000000000000000e+00  8.5229209660329053e-01  1.3068743495008530e+00  1.1407328752884205e+00  4.2071631284408650e-01  -5.2811588966217815e-01  -1.2726646012199898e+00  -1.4714636621688002e+00  -1.0322553124872316e+00  -1.5523577337673075e-01  7.5788009623446573e-01  1.2874266139756210e+00  1.1880849649341756e+00  5.0200802326562011e-01  -4.5900864714869377e-01  -1.2543785883465106e+00  -1.5146132025560959e+00  -1.1093859574385425e+00  -2.0739654063119603e-01  7.9915407355296475e-01  1.4711992998798340e+00  1.5204668317423815e+00  9.3867975552468341e-01  -2.4998123645516554e-13  -8.6406787861809875e-01  -1.2603811106552869e+00  -1.0117640790075728e+00  -2.3626367906316792e-01  7.0747608951876884e-01  1.3836237703005123e+00  1.4771887538362345e+00  9.3711596856122525e-01  0.0000000000000000e+00  0.0000000000000000e+00  6.8488610621699508e-01  9.7728598924852916e-01  6.5990027755052283e-01  -1.9573283539440028e-01  -1.2595126906368987e+00  -2.0924198927678530e+00  -2.3470486768825607e+00  -1.9270626891173233e+00  -1.0322553125295819e+00  -6.8167884856838376e-02  5.3877997221052498e-01  5.3632025285169393e-01  -3.7693544438839488e-02  -8.7172569211408879e-01  -1.5224485191344308e+00  -1.6178671105221887e+00  -1.0293600056349326e+00  6.5794244341564570e-02  1.2602376135035860e+00  2.0967566839014293e+00 