<?xml version="1.0"?>
<VTKFile type="UnstructuredGrid"  version="0.1"  >
<UnstructuredGrid>
<Piece  NumberOfPoints="1089" NumberOfCells="2048">
<Points>
<DataArray  type="Float64"  NumberOfComponents="3"  format="ascii">0 0 0  0.03125 0 0  0.0625 0 0  0.09375 0 0  0.125 0 0  0.15625 0 0  0.1875 0 0  0.21875 0 0  0.25 0 0  0.28125 0 0  0.3125 0 0  0.34375 0 0  0.375 0 0  0.40625 0 0  0.4375 0 0  0.46875 0 0  0.5 0 0  0.53125 0 0  0.5625 0 0  0.59375 0 0  0.625 0 0  0.65625 0 0  0.6875 0 0  0.71875 0 0  0.75 0 0  0.78125 0 0  0.8125 0 0  0.84375 0 0  0.875 0 0  0.90625 0 0  0.9375 0 0  0.96875 0 0  1 0 0  0 0.03125 0  0.03125 0.03125 0  0.0625 0.03125 0  0.09375 0.03125 0  0.125 0.03125 0  0.15625 0.03125 0  0.1875 0.03125 0  0.21875 0.03125 0  0.25 0.03125 0  0.28125 0.03125 0  0.3125 0.03125 0  0.34375 0.03125 0  0.375 0.03125 0  0.40625 0.03125 0  0.4375 0.03125 0  0.46875 0.03125 0  0.5 0.03125 0  0.53125 0.03125 0  0.5625 0.03125 0  0.59375 0.03125 0  0.625 0.03125 0  0.65625 0.03125 0  0.6875 0.03125 0  0.71875 0.03125 0  0.75 0.03125 0  0.78125 0.03125 0  0.8125 0.03125 0  0.84375 0.03125 0  0.875 0.03125 0  0.90625 0.03125 0  0.9375 0.03125 0  0.96875 0.03125 0  1 0.03125 0  0 0.0625 0  0.03125 0.0625 0  0.0625 0.0625 0  0.09375 0.0625 0  0.125 0.0625 0  0.15625 0.0625 0  0.1875 0.0625 0  0.21875 0.0625 0  0.25 0.0625 0  0.28125 0.0625 0  0.3125 0.0625 0  0.34375 0.0625 0  0.375 0.0625 0  0.40625 0.0625 0  0.4375 0.0625 0  0.46875 0.0625 0  0.5 0.0625 0  0.53125 0.0625 0  0.5625 0.0625 0  0.59375 0.0625 0  0.625 0.0625 0  0.65625 0.0625 0  0.6875 0.0625 0  0.71875 0.0625 0  0.75 0.0625 0  0.78125 0.0625 0  0.8125 0.0625 0  0.84375 0.0625 0  0.875 0.0625 0  0.90625 0.0625 0  0.9375 0.0625 0  0.96875 0.0625 0  1 0.0625 0  0 0.09375 0  0.03125 0.09375 0  0.0625 0.09375 0  0.09375 0.09375 0  0.125 0.09375 0  0.15625 0.09375 0  0.1875 0.09375 0  0.21875 0.09375 0  0.25 0.09375 0  0.28125 0.09375 0  0.3125 0.09375 0  0.34375 0.09375 0  0.375 0.09375 0  0.40625 0.09375 0  0.4375 0.09375 0  0.46875 0.09375 0  0.5 0.09375 0  0.53125 0.09375 0  0.5625 0.09375 0  0.59375 0.09375 0  0.625 0.09375 0  0.65625 0.09375 0  0.6875 0.09375 0  0.71875 0.09375 0  0.75 0.09375 0  0.78125 0.09375 0  0.8125 0.09375 0  0.84375 0.09375 0  0.875 0.09375 0  0.90625 0.09375 0  0.9375 0.09375 0  0.96875 0.09375 0  1 0.09375 0  0 0.125 0  0.03125 0.125 0  0.0625 0.125 0  0.09375 0.125 0  0.125 0.125 0  0.15625 0.125 0  0.1875 0.125 0  0.21875 0.125 0  0.25 0.125 0  0.28125 0.125 0  0.3125 0.125 0  0.34375 0.125 0  0.375 0.125 0  0.40625 0.125 0  0.4375 0.125 0  0.46875 0.125 0  0.5 0.125 0  0.53125 0.125 0  0.5625 0.125 0  0.59375 0.125 0  0.625 0.125 0  0.65625 0.125 0  0.6875 0.125 0  0.71875 0.125 0  0.75 0.125 0  0.78125 0.125 0  0.8125 0.125 0  0.84375 0.125 0  0.875 0.125 0  0.90625 0.125 0  0.9375 0.125 0  0.96875 0.125 0  1 0.125 0  0 0.15625 0  0.03125 0.15625 0  0.0625 0.15625 0  0.09375 0.15625 0  0.125 0.15625 0  0.15625 0.15625 0  0.1875 0.15625 0  0.21875 0.15625 0  0.25 0.15625 0  0.28125 0.15625 0  0.3125 0.15625 0  0.34375 0.15625 0  0.375 0.15625 0  0.40625 0.15625 0  0.4375 0.15625 0  0.46875 0.15625 0  0.5 0.15625 0  0.53125 0.15625 0  0.5625 0.15625 0  0.59375 0.15625 0  0.625 0.15625 0  0.65625 0.15625 0  0.6875 0.15625 0  0.71875 0.15625 0  0.75 0.15625 0  0.78125 0.15625 0  0.8125 0.15625 0  0.84375 0.15625 0  0.875 0.15625 0  0.90625 0.15625 0  0.9375 0.15625 0  0.96875 0.15625 0  1 0.15625 0  0 0.1875 0  0.03125 0.1875 0  0.0625 0.1875 0  0.09375 0.1875 0  0.125 0.1875 0  0.15625 0.1875 0  0.1875 0.1875 0  0.21875 0.1875 0  0.25 0.1875 0  0.28125 0.1875 0  0.3125 0.1875 0  0.34375 0.1875 0  0.375 0.1875 0  0.40625 0.1875 0  0.4375 0.1875 0  0.46875 0.1875 0  0.5 0.1875 0  0.53125 0.1875 0  0.5625 0.1875 0  0.59375 0.1875 0  0.625 0.1875 0  0.65625 0.1875 0  0.6875 0.1875 0  0.71875 0.1875 0  0.75 0.1875 0  0.78125 0.1875 0  0.8125 0.1875 0  0.84375 0.1875 0  0.875 0.1875 0  0.90625 0.1875 0  0.9375 0.1875 0  0.96875 0.1875 0  1 0.1875 0  0 0.21875 0  0.03125 0.21875 0  0.0625 0.21875 0  0.09375 0.21875 0  0.125 0.21875 0  0.15625 0.21875 0  0.1875 0.21875 0  0.21875 0.21875 0  0.25 0.21875 0  0.28125 0.21875 0  0.3125 0.21875 0  0.34375 0.21875 0  0.375 0.21875 0  0.40625 0.21875 0  0.4375 0.21875 0  0.46875 0.21875 0  0.5 0.21875 0  0.53125 0.21875 0  0.5625 0.21875 0  0.59375 0.21875 0  0.625 0.21875 0  0.65625 0.21875 0  0.6875 0.21875 0  0.71875 0.21875 0  0.75 0.21875 0  0.78125 0.21875 0  0.8125 0.21875 0  0.84375 0.21875 0  0.875 0.21875 0  0.90625 0.21875 0  0.9375 0.21875 0  0.96875 0.21875 0  1 0.21875 0  0 0.25 0  0.03125 0.25 0  0.0625 0.25 0  0.09375 0.25 0  0.125 0.25 0  0.15625 0.25 0  0.1875 0.25 0  0.21875 0.25 0  0.25 0.25 0  0.28125 0.25 0  0.3125 0.25 0  0.34375 0.25 0  0.375 0.25 0  0.40625 0.25 0  0.4375 0.25 0  0.46875 0.25 0  0.5 0.25 0  0.53125 0.25 0  0.5625 0.25 0  0.59375 0.25 0  0.625 0.25 0  0.65625 0.25 0  0.6875 0.25 0  0.71875 0.25 0  0.75 0.25 0  0.78125 0.25 0  0.8125 0.25 0  0.84375 0.25 0  0.875 0.25 0  0.90625 0.25 0  0.9375 0.25 0  0.96875 0.25 0  1 0.25 0  0 0.28125 0  0.03125 0.28125 0  0.0625 0.28125 0  0.09375 0.28125 0  0.125 0.28125 0  0.15625 0.28125 0  0.1875 0.28125 0  0.21875 0.28125 0  0.25 0.28125 0  0.28125 0.28125 0  0.3125 0.28125 0  0.34375 0.28125 0  0.375 0.28125 0  0.40625 0.28125 0  0.4375 0.28125 0  0.46875 0.28125 0  0.5 0.28125 0  0.53125 0.28125 0  0.5625 0.28125 0  0.59375 0.28125 0  0.625 0.28125 0  0.65625 0.28125 0  0.6875 0.28125 0  0.71875 0.28125 0  0.75 0.28125 0  0.78125 0.28125 0  0.8125 0.28125 0  0.84375 0.28125 0  0.875 0.28125 0  0.90625 0.28125 0  0.9375 0.28125 0  0.96875 0.28125 0  1 0.28125 0  0 0.3125 0  0.03125 0.3125 0  0.0625 0.3125 0  0.09375 0.3125 0  0.125 0.3125 0  0.15625 0.3125 0  0.1875 0.3125 0  0.21875 0.3125 0  0.25 0.3125 0  0.28125 0.3125 0  0.3125 0.3125 0  0.34375 0.3125 0  0.375 0.3125 0  0.40625 0.3125 0  0.4375 0.3125 0  0.46875 0.3125 0  0.5 0.3125 0  0.53125 0.3125 0  0.5625 0.3125 0  0.59375 0.3125 0  0.625 0.3125 0  0.65625 0.3125 0  0.6875 0.3125 0  0.71875 0.3125 0  0.75 0.3125 0  0.78125 0.3125 0  0.8125 0.3125 0  0.84375 0.3125 0  0.875 0.3125 0  0.90625 0.3125 0  0.9375 0.3125 0  0.96875 0.3125 0  1 0.3125 0  0 0.34375 0  0.03125 0.34375 0  0.0625 0.34375 0  0.09375 0.34375 0  0.125 0.34375 0  0.15625 0.34375 0  0.1875 0.34375 0  0.21875 0.34375 0  0.25 0.34375 0  0.28125 0.34375 0  0.3125 0.34375 0  0.34375 0.34375 0  0.375 0.34375 0  0.40625 0.34375 0  0.4375 0.34375 0  0.46875 0.34375 0  0.5 0.34375 0  0.53125 0.34375 0  0.5625 0.34375 0  0.59375 0.34375 0  0.625 0.34375 0  0.65625 0.34375 0  0.6875 0.34375 0  0.71875 0.34375 0  0.75 0.34375 0  0.78125 0.34375 0  0.8125 0.34375 0  0.84375 0.34375 0  0.875 0.34375 0  0.90625 0.34375 0  0.9375 0.34375 0  0.96875 0.34375 0  1 0.34375 0  0 0.375 0  0.03125 0.375 0  0.0625 0.375 0  0.09375 0.375 0  0.125 0.375 0  0.15625 0.375 0  0.1875 0.375 0  0.21875 0.375 0  0.25 0.375 0  0.28125 0.375 0  0.3125 0.375 0  0.34375 0.375 0  0.375 0.375 0  0.40625 0.375 0  0.4375 0.375 0  0.46875 0.375 0  0.5 0.375 0  0.53125 0.375 0  0.5625 0.375 0  0.59375 0.375 0  0.625 0.375 0  0.65625 0.375 0  0.6875 0.375 0  0.71875 0.375 0  0.75 0.375 0  0.78125 0.375 0  0.8125 0.375 0  0.84375 0.375 0  0.875 0.375 0  0.90625 0.375 0  0.9375 0.375 0  0.96875 0.375 0  1 0.375 0  0 0.40625 0  0.03125 0.40625 0  0.0625 0.40625 0  0.09375 0.40625 0  0.125 0.40625 0  0.15625 0.40625 0  0.1875 0.40625 0  0.21875 0.40625 0  0.25 0.40625 0  0.28125 0.40625 0  0.3125 0.40625 0  0.34375 0.40625 0  0.375 0.40625 0  0.40625 0.40625 0  0.4375 0.40625 0  0.46875 0.40625 0  0.5 0.40625 0  0.53125 0.40625 0  0.5625 0.40625 0  0.59375 0.40625 0  0.625 0.40625 0  0.65625 0.40625 0  0.6875 0.40625 0  0.71875 0.40625 0  0.75 0.40625 0  0.78125 0.40625 0  0.8125 0.40625 0  0.84375 0.40625 0  0.875 0.40625 0  0.90625 0.40625 0  0.9375 0.40625 0  0.96875 0.40625 0  1 0.40625 0  0 0.4375 0  0.03125 0.4375 0  0.0625 0.4375 0  0.09375 0.4375 0  0.125 0.4375 0  0.15625 0.4375 0  0.1875 0.4375 0  0.21875 0.4375 0  0.25 0.4375 0  0.28125 0.4375 0  0.3125 0.4375 0  0.34375 0.4375 0  0.375 0.4375 0  0.40625 0.4375 0  0.4375 0.4375 0  0.46875 0.4375 0  0.5 0.4375 0  0.53125 0.4375 0  0.5625 0.4375 0  0.59375 0.4375 0  0.625 0.4375 0  0.65625 0.4375 0  0.6875 0.4375 0  0.71875 0.4375 0  0.75 0.4375 0  0.78125 0.4375 0  0.8125 0.4375 0  0.84375 0.4375 0  0.875 0.4375 0  0.90625 0.4375 0  0.9375 0.4375 0  0.96875 0.4375 0  1 0.4375 0  0 0.46875 0  0.03125 0.46875 0  0.0625 0.46875 0  0.09375 0.46875 0  0.125 0.46875 0  0.15625 0.46875 0  0.1875 0.46875 0  0.21875 0.46875 0  0.25 0.46875 0  0.28125 0.46875 0  0.3125 0.46875 0  0.34375 0.46875 0  0.375 0.46875 0  0.40625 0.46875 0  0.4375 0.46875 0  0.46875 0.46875 0  0.5 0.46875 0  0.53125 0.46875 0  0.5625 0.46875 0  0.59375 0.46875 0  0.625 0.46875 0  0.65625 0.46875 0  0.6875 0.46875 0  0.71875 0.46875 0  0.75 0.46875 0  0.78125 0.46875 0  0.8125 0.46875 0  0.84375 0.46875 0  0.875 0.46875 0  0.90625 0.46875 0  0.9375 0.46875 0  0.96875 0.46875 0  1 0.46875 0  0 0.5 0  0.03125 0.5 0  0.0625 0.5 0  0.09375 0.5 0  0.125 0.5 0  0.15625 0.5 0  0.1875 0.5 0  0.21875 0.5 0  0.25 0.5 0  0.28125 0.5 0  0.3125 0.5 0  0.34375 0.5 0  0.375 0.5 0  0.40625 0.5 0  0.4375 0.5 0  0.46875 0.5 0  0.5 0.5 0  0.53125 0.5 0  0.5625 0.5 0  0.59375 0.5 0  0.625 0.5 0  0.65625 0.5 0  0.6875 0.5 0  0.71875 0.5 0  0.75 0.5 0  0.78125 0.5 0  0.8125 0.5 0  0.84375 0.5 0  0.875 0.5 0  0.90625 0.5 0  0.9375 0.5 0  0.96875 0.5 0  1 0.5 0  0 0.53125 0  0.03125 0.53125 0  0.0625 0.53125 0  0.09375 0.53125 0  0.125 0.53125 0  0.15625 0.53125 0  0.1875 0.53125 0  0.21875 0.53125 0  0.25 0.53125 0  0.28125 0.53125 0  0.3125 0.53125 0  0.34375 0.53125 0  0.375 0.53125 0  0.40625 0.53125 0  0.4375 0.53125 0  0.46875 0.53125 0  0.5 0.53125 0  0.53125 0.53125 0  0.5625 0.53125 0  0.59375 0.53125 0  0.625 0.53125 0  0.65625 0.53125 0  0.6875 0.53125 0  0.71875 0.53125 0  0.75 0.53125 0  0.78125 0.531
[...]
<PointData  Scalars="eigenfunction"> 
<DataArray  type="Float64"  Name="eigenfunction"  format="ascii">0.0000000000000000e+00  0.0000000000000000e+00  0.0000000000000000e+00  0.0000000000000000e+00  0.0000000000000000e+00  0.0000000000000000e+00  0.0000000000000000e+00  0.0000000000000000e+00  0.0000000000000000e+00  0.0000000000000000e+00  0.0000000000000000e+00  0.0000000000000000e+00  0.0000000000000000e+00  0.0000000000000000e+00  0.0000000000000000e+00  0.0000000000000000e+00  0.0000000000000000e+00  0.0000000000000000e+00  0.0000000000000000e+00  0.0000000000000000e+00  0.0000000000000000e+00  0.0000000000000000e+00  0.0000000000000000e+00  0.0000000000000000e+00  0.0000000000000000e+00  0.0000000000000000e+00  0.0000000000000000e+00  0.0000000000000000e+00  0.0000000000000000e+00  0.0000000000000000e+00  0.0000000000000000e+00  0.0000000000000000e+00  0.0000000000000000e+00  0.0000000000000000e+00  -3.2211601867281381e-01  -5.9994128005394742e-01  -8.0317091824606002e-01  -9.0950469169974368e-01  -9.0820201593449179e-01  -8.0162476387860260e-01  -6.0489410473355965e-01  -3.4381747648496358e-01  -5.1412368626057504e-02  2.3647492233862158e-01  4.8584175585100842e-01  6.6884585690616727e-01  7.6717701332222998e-01  7.7403617152802162e-01  6.9447984174115207e-01  5.4412695360684527e-01  3.4646273982182413e-01  1.2917431138878427e-01  -7.9914786168599233e-02  -2.5669851289234275e-01  -3.8386693414628575e-01  -4.5278019747345966e-01  -4.6390750942996323e-01  -4.2583228657825556e-01  -3.5305191683757153e-01  -2.6298725267405398e-01  -1.7273328905596513e-01  -9.6110089986551045e-02  -4.1508103920277220e-02  -1.0876205008322809e-02  -1.2182098039044114e-14  0.0000000000000000e+00  0.0000000000000000e+00  -5.9994128005394654e-01  -1.1214082719219085e+00  -1.5045971752656360e+00  -1.7063279997001859e+00  -1.7056859064237273e+00  -1.5066799579263319e+00  -1.1375505762476723e+00  -6.4685373791263778e-01  -9.6888810200394332e-02  4.4460308176664398e-01  9.1331035181140907e-01  1.2565620093943390e+00  1.4397537057281495e+00  1.4501306139877490e+00  1.2974588695101292e+00  1.0115732169171612e+00  6.3724266943491381e-01  2.2718022548136038e-01  -1.6572101061186856e-01  -4.9575334810928329e-01  -7.3027999621019901e-01  -8.5331427250618264e-01  -8.6634617706305173e-01  -7.8641386444188321e-01  -6.4185464690952843e-01  -4.6653061563642567e-01  -2.9355012616957227e-01  -1.4956229773705590e-01  -5.0579125294560552e-02  -4.3441737764943121e-14  1.0876205008276754e-02  0.0000000000000000e+00  0.0000000000000000e+00  -8.0317091824605646e-01  -1.5045971752656315e+00  -2.0215298372426349e+00  -2.2942881951380656e+00  -2.2937441607336977e+00  -2.0248702103434635e+00  -1.5257880882281767e+00  -8.6243226288774544e-01  -1.1956974573800332e-01  6.1056915611615303e-01  1.2404618111594736e+00  1.6985730081156849e+00  1.9381886486083884e+00  1.9426118381636779e+00  1.7260660368099061e+00  1.3302802894561128e+00  8.1736214073911750e-01  2.6009969158155105e-01  -2.6880600028885315e-01  -7.0694828851909153e-01  -1.0103541141425723e+00  -1.1584001427723061e+00  -1.1548794650807217e+00  -1.0252123783727349e+00  -8.1040733599236880e-01  -5.5888532286492343e-01  -3.1760125017894941e-01  -1.2397802562373710e-01  -7.9755557895316212e-14  5.0579125294442626e-02  4.1508103920214534e-02  0.0000000000000000e+00  0.0000000000000000e+00  -9.0950469169973558e-01  -1.7063279997001732e+00  -2.2942881951380549e+00  -2.6038104331651550e+00  -2.6007176815374922e+00  -2.2904134313342888e+00  -1.7168235873073634e+00  -9.5621364419604404e-01  -1.0672850772121031e-01  7.2488798459805159e-01  1.4375351614357046e+00  1.9489660068877295e+00  2.2061271397432960e+00  2.1912124088895419e+00  1.9226455068896591e+00  1.4509538685276131e+00  8.5024707596268967e-01  2.0665441705050011e-01  -3.9449007380082762e-01  -8.8076804362584815e-01  -1.2022970556633750e+00  -1.3374648450648905e+00  -1.2940244747218599e+00  -1.1055427392752519e+00  -8.2393369931710303e-01  -5.0942420723924353e-01  -2.1968941905587247e-01  -1.0342190108710541e-13  1.2397802562355476e-01  1.4956229773692026e-01  9.6110089986478769e-02  0.0000000000000000e+00  0.0000000000000000e+00  -9.0820201593447780e-01  -1.7056859064237033e+00  -2.2937441607336719e+00  -2.6007176815374740e+00  -2.5912753388329475e+00  -2.2708787259225440e+00  -1.6847746168009587e+00  -9.1162087943717796e-01  -5.2614422010512210e-02  7.8236332878692760e-01  1.4896339595791770e+00  1.9855390031614228e+00  2.2172350504692417e+00  2.1689563448987133e+00  1.8629007623693807e+00  1.3546902469300046e+00  7.2416156243624463e-01  6.2935102183617198e-02  -5.3931866871444389e-01  -1.0078183824023121e+00  -1.2928668556052951e+00  -1.3758026520050775e+00  -1.2698927542567884e+00  -1.0161614190510717e+00  -6.7495813345408351e-01  -3.1474289730046873e-01  -1.0145944275350734e-13  2.1968941905566608e-01  3.1760125017876584e-01  2.9355012616943454e-01  1.7273328905589128e-01  0.0000000000000000e+00  0.0000000000000000e+00  -8.0162476387858173e-01  -1.5066799579262951e+00  -2.0248702103434200e+00  -2.2904134313342492e+00  -2.2708787259225205e+00  -1.9715174047038726e+00  -1.4344408938740507e+00  -7.3271645139057084e-01  3.9822180279442225e-02  7.8162646977833194e-01  1.3974955842039856e+00  1.8116345671180241e+00  1.9778251688767521e+00  1.8852403322025795e+00  1.5590724315676467e+00  1.0559166262913309e+00  4.5463850771734382e-01  -1.5586137171410330e-01  -6.9010197788720495e-01  -1.0786281117953673e+00  -1.2778394223564733e+00  -1.2755543923890551e+00  -1.0914999123180491e+00  -7.7272663107586914e-01  -3.8476243560841816e-01  -7.2573489590268678e-14  3.1474289730029353e-01  5.0942420723906101e-01  5.5888532286475812e-01  4.6653061563630072e-01  2.6298725267398665e-01  0.0000000000000000e+00  0.0000000000000000e+00  -6.0489410473353211e-01  -1.1375505762476228e+00  -1.5257880882281136e+00  -1.7168235873073010e+00  -1.6847746168009081e+00  -1.4344408938740218e+00  -1.0007719774762840e+00  -4.4403391519222557e-01  1.5868777250917365e-01  7.2446215104553979e-01  1.1763890725315993e+00  1.4546396545701601e+00  1.5250176944712368e+00  1.3837443458035470e+00  1.0577196883578968e+00  6.0019253694350672e-01  8.2472132947063195e-02  -4.1706690243767586e-01  -8.2500109453820480e-01  -1.0840339274396986e+00  -1.1615828805278230e+00  -1.0544230854838847e+00  -7.8864856963648600e-01  -4.1495497082922500e-01  -2.7183540998598851e-14  3.8476243560832013e-01  6.7495813345395528e-01  8.2393369931696325e-01  8.1040733599223902e-01  6.4185464690942873e-01  3.5305191683751724e-01  0.0000000000000000e+00  0.0000000000000000e+00  -3.4381747648493116e-01  -6.4685373791257805e-01  -8.6243226288766783e-01  -9.5621364419596155e-01  -9.1162087943710268e-01  -7.3271645139051411e-01  -4.4403391519219532e-01  -8.7302745316376731e-02  2.8452914589917422e-01  6.1514541836887471e-01  8.5343707716417327e-01  9.6150381799275098e-01  9.2082320663289441e-01  7.3557117264861227e-01  4.3248845618392062e-01  5.7211004729431372e-02  -3.3246098639184113e-01  -6.7537883734741655e-01  -9.1660579520496743e-01  -1.0162211650743225e+00  -9.5594334935034164e-01  -7.4245641139520346e-01  -4.0682521183234155e-01  1.7088625778301205e-14  4.1495497082922045e-01  7.7272663107582851e-01  1.0161614190510024e+00  1.1055427392751673e+00  1.0252123783726517e+00  7.8641386444181738e-01  4.2583228657821892e-01  0.0000000000000000e+00  0.0000000000000000e+00  -5.1412368626023115e-02  -9.6888810200330328e-02  -1.1956974573791830e-01  -1.0672850772111563e-01  -5.2614422010419333e-02  3.9822180279521731e-02  1.5868777250923077e-01  2.8452914589920347e-01  3.9322153577748525e-01  4.5997464507584562e-01  4.6384772555556603e-01  3.9202828344894702e-01  2.4310889258601515e-01  2.8706344165016176e-02  -2.2700138275074674e-01  -4.8992242720063028e-01  -7.2061991842695017e-01  -8.8019247438303827e-01  -9.3658806105097359e-01  -8.7033539753635236e-01  -6.7870287047318822e-01  -3.7749020729677835e-01  4.2635837262753197e-14  4.0682521183240994e-01  7.8864856963653018e-01  1.0914999123180664e+00  1.2698927542567804e+00  1.2940244747218344e+00  1.1548794650806895e+00  8.6634617706302330e-01  4.6390750942994624e-01  0.0000000000000000e+00  0.0000000000000000e+00  2.3647492233865414e-01  4.4460308176670554e-01  6.1056915611623652e-01  7.2488798459814785e-01  7.8236332878702664e-01  7.8162646977842398e-01  7.2446215104561540e-01  6.1514541836892789e-01  4.5997464507587282e-01  2.6710100305617068e-01  4.6641654127661754e-02  -1.8905068429618671e-01  -4.2517709799080800e-01  -6.4459328131971083e-01  -8.2844660802993719e-01  -9.5748113180407335e-01  -1.0139978240574981e+00  -9.8428883270797740e-01  -8.6120685390180440e-01  -6.4641999791064775e-01  -3.5186859672311954e-01  3.9384273754547336e-14  3.7749020729686944e-01  7.4245641139529617e-01  1.0544230854839689e+00  1.2755543923891228e+00  1.3758026520051263e+00  1.3374648450649216e+00  1.1584001427723223e+00  8.5331427250619030e-01  4.5278019747346221e-01  0.0000000000000000e+00  0.0000000000000000e+00  4.8584175585103501e-01  9.1331035181146047e-01  1.2404618111595447e+00  1.4375351614357896e+00  1.4896339595792687e+00  1.3974955842040766e+00  1.1763890725316819e+00  8.5343707716424155e-01  4.6384772555561443e-01  4.6641654127686595e-02  -3.5954038341704775e-01  -7.2005380353482606e-01  -1.0069501937331931e+00  -1.2006075335615660e+00  -1.2903184700919028e+00  -1.2740083347382209e+00  -1.1573393054616050e+00  -9.5247498091078731e-01  -6.7673738121541560e-01  -3.5130479601047260e-01  8.9526612032922017e-15  3.5186859672317528e-01  6.7870287047327338e-01  9.5594334935044545e-01  1.1615828805279333e+00  1.2778394223565794e+00  1.2928668556053873e+00  1.2022970556634511e+00  1.0103541141426293e+00  7.3027999621023665e-01  3.8386693414630413e-01  0.0000000000000000e+00  0.0000000000000000e+00  6.6884585690618403e-01  1.2565620093943728e+00  1.6985730081157333e+00  1.9489660068877908e+00  1.9855390031614928e+00  1.8116345671180998e+00  1.4546396545702369e+00  9.6150381799282325e-01  3.9202828344900847e-01  -1.8905068429614175e-01  -7.2005380353480231e-01  -1.1493604493395624e+00  -1.4405704623227977e+00  -1.5753018618401962e+00  -1.5534774607319333e+00  -1.3913209562329070e+00  -1.1175852151822196e+00  -7.6873090061698035e-01  -3.8384126068739705e-01  -3.5245601883453025e-14  3.5130479601044967e-01  6.4641999791067339e-01  8.7033539753642020e-01  1.0162211650744226e+00  1.0840339274398187e+00  1.0786281117954941e+00  1.0078183824024327e+00  8.8076804362595373e-01  7.0694828851917535e-01  4.9575334810934085e-01  2.5669851289237211e-01  0.0000000000000000e+00  0.0000000000000000e+00  7.6717701332223331e-01  1.4397537057281580e+00  1.9381886486084041e+00  2.2061271397433218e+00  2.2172350504692790e+00  1.9778251688768016e+00  1.5250176944712956e+00  9.2082320663295902e-01  2.4310889258608021e-01  -4.2517709799074899e-01  -1.0069501937331473e+00  -1.4405704623227720e+00  -1.6867925414435680e+00  -1.7322572112541577e+00  -1.5892399510824704e+00  -1.2919302526383574e+00  -8.9000462404564817e-01  -4.4060533686533981e-01  -7.4641791622961208e-14  3.8384126068728674e-01  6.7673738121535487e-01  8.6120685390179774e-01  9.3658806105101677e-01  9.1660579520505192e-01  8.2500109453831816e-01  6.9010197788733285e-01  5.3931866871457179e-01  3.9449007380094342e-01  2.6880600028894769e-01  1.6572101061193509e-01  7.9914786168633498e-02  0.0000000000000000e+00  0.0000000000000000e+00  7.7403617152800985e-01  1.4501306139877290e+00  1.9426118381636561e+00  2.1912124088895228e+00  2.1689563448987057e+00  1.8852403322025892e+00  1.3837443458035754e+00  7.3557117264865823e-01  2.8706344165075844e-02  -6.4459328131964433e-01  -1.2006075335615025e+00  -1.5753018618401455e+00  -1.7322572112541279e+00  -1.6663422071893370e+00  -1.4027516295142100e+00  -9.9173510557668809e-01  -4.9997011013629894e-01  -9.3442982388480596e-14  4.4060533686516867e-01  7.6873090061684346e-01  9.5247498091069804e-01  9.8428883270794121e-01  8.8019247438305392e-01  6.7537883734747650e-01  4.1706690243776862e-01  1.5586137171421471e-01  -6.2935102183501360e-02  -2.0665441705039234e-01  -2.6009969158146173e-01  -2.2718022548129674e-01  -1.2917431138875116e-01  0.0000000000000000e+00  0.0000000000000000e+00  6.9447984174112443e-01  1.2974588695100804e+00  1.7260660368098435e+00  1.9226455068895933e+00  1.8629007623693243e+00  1.5590724315676094e+00  1.0577196883578863e+00  4.3248845618394016e-01  -2.2700138275069989e-01  -8.2844660802986991e-01  -1.2903184700918262e+00  -1.5534774607318600e+00  -1.5892399510824100e+00  -1.4027516295141749e+00  -1.0312492291666187e+00  -5.3757220878073075e-01  -8.4550572203334718e-14  4.9997011013611764e-01  8.9000462404547598e-01  1.1175852151820753e+00  1.1573393054615020e+00  1.0139978240574417e+00  7.2061991842694006e-01  3.3246098639187233e-01  -8.2472132947000537e-02  -4.5463850771726178e-01  -7.2416156243615637e-01  -8.5024707596260585e-01  -8.1736214073904723e-01  -6.3724266943486341e-01  -3.4646273982179737e-01  0.0000000000000000e+00  0.0000000000000000e+00  5.4412695360680430e-01  1.0115732169170857e+00  1.3302802894560137e+00  1.4509538685275052e+00  1.3546902469299027e+00  1.0559166262912498e+00  6.0019253694345820e-01  5.7211004729421623e-02  -4.8992242720060120e-01  -9.5748113180401129e-01  -1.2740083347381368e+00  -1.3913209562328130e+00  -1.2919302526382688e+00  -9.9173510557661904e-01  -5.3757220878069301e-01  -5.2323719962853951e-14  5.3757220878059286e-01  9.9173510557653366e-01  1.2919302526382046e+00  1.3913209562327724e+00  1.2740083347381166e+00  9.5748113180400551e-01  4.8992242720059981e-01  -5.7211004729428860e-02  -6.0019253694347829e-01  -1.0559166262912867e+00  -1.3546902469299542e+00  -1.4509538685275645e+00  -1.3302802894560712e+00  -1.0115732169171314e+00  -5.4412695360682939e-01  0.0000000000000000e+00  0.0000000000000000e+00  3.4646273982177306e-01  6.3724266943481922e-01  8.1736214073899116e-01  8.5024707596254778e-01  7.2416156243610652e-01  4.5463850771722747e-01  8.2472132946982218e-02  -3.3246098639187804e-01  -7.2061991842694006e-01  -1.0139978240574459e+00  -1.1573393054615204e+00  -1.1175852151821144e+00  -8.9000462404553793e-01  -4.9997011013619996e-01  -1.0849232663960046e-14  5.3757220878063161e-01  1.0312492291665256e+00  1.4027516295140980e+00  1.5892399510823549e+00  1.5534774607318285e+00  1.2903184700918153e+00  8.2844660802987213e-01  2.2700138275070558e-01  -4.3248845618394122e-01  -1.0577196883579016e+00  -1.5590724315676430e+00  -1.8629007623693730e+00  -1.9226455068896504e+00  -1.7260660368098995e+00  -1.2974588695101248e+00  -6.9447984174114918e-01  0.0000000000000000e+00  0.0000000000000000e+00  1.2917431138872887e-01  2.2718022548125660e-01  2.6009969158141133e-01  2.0665441705034146e-01  6.2935102183459282e-02  -1.5586137171424180e-01  -4.1706690243777955e-01  -6.7537883734747450e-01  -8.8019247438304593e-01  -9.8428883270793677e-01  -9.5247498091070626e-01  -7.6873090061687077e-01  -4.4060533686521741e-01  2.5939857075992168e-14  4.9997011013621956e-01  9.9173510557660594e-01  1.4027516295141347e+00  1.6663422071892779e+00  1.7322572112540917e+00  1.5753018618401322e+00  1.2006075335615087e+00  6.4459328131966287e-01  -2.8706344165055870e-02  -7.3557117264864669e-01  -1.3837443458035790e+00  -1.8852403322026139e+00  -2.1689563448987479e+00  -2.1912124088895757e+00  -1.9426118381637076e+00  -1.4501306139877705e+00  -7.7403617152803317e-01  0.0000000000000000e+00  0.0000000000000000e+00  -7.9914786168652843e-02  -1.6572101061196975e-01  -2.6880600028899032e-01  -3.9449007380098483e-01  -5.3931866871460299e-01  -6.9010197788734851e-01  -8.2500109453831716e-01  -9.1660579520503727e-01  -9.3658806105099524e-01  -8.6120685390177754e-01  -6.7673738121534588e-01  -3.8384126068729529e-01  4.6315407456909131e-14  4.4060533686529424e-01  8.9000462404559211e-01  1.2919302526383005e+00  1.5892399510824218e+00  1.7322572112541246e+00  1.6867925414435549e+00  1.4405704623227820e+00  1.0069501937331757e+00  4.2517709799078790e-01  -2.4310889258604165e-01  -9.2082320663293082e-01  -1.5250176944712852e+00  -1.9778251688768131e+00  -2.2172350504693101e+00  -2.2061271397433657e+00  -1.9381886486084505e+00  -1.4397537057281959e+00  -7.6717701332225474e-01  0.0000000000000000e+00  0.0000000000000000e+00  -2.5669851289238821e-01  -4.9575334810936944e-01  -7.0694828851920932e-01  -8.8076804362598471e-01  -1.0078183824024527e+00  -1.0786281117954966e+00  -1.0840339274398043e+00  -1.0162211650743933e+00  -8.7033539753638223e-01  -6.4641999791063598e-01  -3.5130479601042158e-01  4.7614211749113887e-14  3.8384126068739161e-01  7.6873090061695926e-01  1.1175852151821897e+00  1.3913209562328763e+00  1.5534774607319131e+00  1.5753018618401911e+00  1.4405704623228119e+00  1.1493604493395961e+00  7.2005380353485282e-01  1.8905068429620056e-01  -3.9202828344895202e-01  -9.6150381799277895e-01  -1.4546396545702125e+00  -1.8116345671180991e+00  -1.9855390031615145e+00  -1.9489660068878258e+00  -1.6985730081157724e+00  -1.2565620093944054e+00  -6.6884585690620313e-01  0.0000000000000000e+00  0.0000000000000000e+00  -3.8386693414631734e-01  -7.3027999621025941e-01  -1.0103541141426551e+00  -1.2022970556634729e+00  -1.2928668556053977e+00  -1.2778394223565721e+00  -1.1615828805279074e+00  -9.5594334935040381e-01  -6.7870287047322209e-01  -3.5186859672312326e-01  3.5377506245482032e-14  3.5130479601050318e-01  6.7673738121543014e-01  9.5247498091078842e-01  1.1573393054615986e+00  1.2740083347382138e+00  1.2903184700919046e+00  1.2006075335615825e+00  1.0069501937332279e+00  7.2005380353487947e-01  3.5954038341711519e-01  -4.6641654127612751e-02  -4.6384772555554465e-01  -8.5343707716418493e-01  -1.1763890725316466e+00  -1.3974955842040659e+00  -1.4896339595792805e+00  -1.4375351614358167e+00  -1.2404618111595775e+00  -9.1331035181148956e-01  -4.8584175585105216e-01  0.0000000000000000e+00  0.0000000000000000e+00  -4.5278019747347326e-01  -8.5331427250620928e-01  -1.1584001427723438e+00  -1.3374648450649376e+00  -1.3758026520051296e+00  -1.2755543923891086e+00  -1.0544230854839354e+00  -7.4245641139524732e-01  -3.7749020729681082e-01  2.0968643579431089e-14  3.5186859672317355e-01  6.4641999791068983e-01  8.6120685390183227e-01  9.8428883270799283e-01  1.0139978240575065e+00  9.5748113180408068e-01  8.2844660802995140e-01  6.4459328131973881e-01  4.2517709799085335e-01  1.8905068429624894e-01  -4.6641654127586800e-02  -2.6710100305609075e-01  -4.5997464507579772e-01  -6.1514541836886683e-01  -7.2446215104557576e-01  -7.8162646977840788e-01  -7.8236332878703274e-01  -7.2488798459817005e-01  -6.1056915611626539e-01  -4.4460308176673163e-01  -2.3647492233866954e-01  0.0000000000000000e+00  0.0000000000000000e+00  -4.6390750942995634e-01  -8.6634617706304007e-01  -1.1548794650807084e+00  -1.2940244747218477e+00  -1.2698927542567811e+00  -1.0914999123180495e+00  -7.8864856963649566e-01  -4.0682521183236064e-01  1.5733522457179286e-14  3.7749020729683863e-01  6.7870287047324285e-01  8.7033539753639599e-01  9.3658806105100412e-01  8.8019247438305726e-01  7.2061991842696194e-01  4.8992242720064050e-01  2.2700138275076243e-01  -2.8706344164988448e-02  -2.4310889258597185e-01  -3.9202828344888835e-01  -4.6384772555549547e-01  -4.5997464507577074e-01  -3.9322153577741537e-01  -2.8452914589914713e-01  -1.5868777250919380e-01  -3.9822180279506944e-02  5.2614422010413955e-02  1.0672850772109502e-01  1.1956974573789131e-01  9.6888810200305958e-02  5.1412368626008703e-02  0.0000000000000000e+00  0.0000000000000000e+00  -4.2583228657822869e-01  -7.8641386444183381e-01  -1.0252123783726701e+00  -1.1055427392751811e+00  -1.0161614190510042e+00  -7.7272663107581518e-01  -4.1495497082919164e-01  2.4829365244575567e-14  4.0682521183239156e-01  7.4245641139525576e-01  9.5594334935038805e-01  1.0162211650743580e+00  9.1660579520499041e-01  6.7537883734742810e-01  3.3246098639184501e-01  -5.7211004729429575e-02  -4.3248845618391507e-01  -7.3557117264859695e-01  -9.2082320663286510e-01  -9.6150381799270701