<?xml version="1.0"?>
<VTKFile type="UnstructuredGrid"  version="0.1"  >
<UnstructuredGrid>
<Piece  NumberOfPoints="1089" NumberOfCells="2048">
<Points>
<DataArray  type="Float64"  NumberOfComponents="3"  format="ascii">0 0 0  0.03125 0 0  0.0625 0 0  0.09375 0 0  0.125 0 0  0.15625 0 0  0.1875 0 0  0.21875 0 0  0.25 0 0  0.28125 0 0  0.3125 0 0  0.34375 0 0  0.375 0 0  0.40625 0 0  0.4375 0 0  0.46875 0 0  0.5 0 0  0.53125 0 0  0.5625 0 0  0.59375 0 0  0.625 0 0  0.65625 0 0  0.6875 0 0  0.71875 0 0  0.75 0 0  0.78125 0 0  0.8125 0 0  0.84375 0 0  0.875 0 0  0.90625 0 0  0.9375 0 0  0.96875 0 0  1 0 0  0 0.03125 0  0.03125 0.03125 0  0.0625 0.03125 0  0.09375 0.03125 0  0.125 0.03125 0  0.15625 0.03125 0  0.1875 0.03125 0  0.21875 0.03125 0  0.25 0.03125 0  0.28125 0.03125 0  0.3125 0.03125 0  0.34375 0.03125 0  0.375 0.03125 0  0.40625 0.03125 0  0.4375 0.03125 0  0.46875 0.03125 0  0.5 0.03125 0  0.53125 0.03125 0  0.5625 0.03125 0  0.59375 0.03125 0  0.625 0.03125 0  0.65625 0.03125 0  0.6875 0.03125 0  0.71875 0.03125 0  0.75 0.03125 0  0.78125 0.03125 0  0.8125 0.03125 0  0.84375 0.03125 0  0.875 0.03125 0  0.90625 0.03125 0  0.9375 0.03125 0  0.96875 0.03125 0  1 0.03125 0  0 0.0625 0  0.03125 0.0625 0  0.0625 0.0625 0  0.09375 0.0625 0  0.125 0.0625 0  0.15625 0.0625 0  0.1875 0.0625 0  0.21875 0.0625 0  0.25 0.0625 0  0.28125 0.0625 0  0.3125 0.0625 0  0.34375 0.0625 0  0.375 0.0625 0  0.40625 0.0625 0  0.4375 0.0625 0  0.46875 0.0625 0  0.5 0.0625 0  0.53125 0.0625 0  0.5625 0.0625 0  0.59375 0.0625 0  0.625 0.0625 0  0.65625 0.0625 0  0.6875 0.0625 0  0.71875 0.0625 0  0.75 0.0625 0  0.78125 0.0625 0  0.8125 0.0625 0  0.84375 0.0625 0  0.875 0.0625 0  0.90625 0.0625 0  0.9375 0.0625 0  0.96875 0.0625 0  1 0.0625 0  0 0.09375 0  0.03125 0.09375 0  0.0625 0.09375 0  0.09375 0.09375 0  0.125 0.09375 0  0.15625 0.09375 0  0.1875 0.09375 0  0.21875 0.09375 0  0.25 0.09375 0  0.28125 0.09375 0  0.3125 0.09375 0  0.34375 0.09375 0  0.375 0.09375 0  0.40625 0.09375 0  0.4375 0.09375 0  0.46875 0.09375 0  0.5 0.09375 0  0.53125 0.09375 0  0.5625 0.09375 0  0.59375 0.09375 0  0.625 0.09375 0  0.65625 0.09375 0  0.6875 0.09375 0  0.71875 0.09375 0  0.75 0.09375 0  0.78125 0.09375 0  0.8125 0.09375 0  0.84375 0.09375 0  0.875 0.09375 0  0.90625 0.09375 0  0.9375 0.09375 0  0.96875 0.09375 0  1 0.09375 0  0 0.125 0  0.03125 0.125 0  0.0625 0.125 0  0.09375 0.125 0  0.125 0.125 0  0.15625 0.125 0  0.1875 0.125 0  0.21875 0.125 0  0.25 0.125 0  0.28125 0.125 0  0.3125 0.125 0  0.34375 0.125 0  0.375 0.125 0  0.40625 0.125 0  0.4375 0.125 0  0.46875 0.125 0  0.5 0.125 0  0.53125 0.125 0  0.5625 0.125 0  0.59375 0.125 0  0.625 0.125 0  0.65625 0.125 0  0.6875 0.125 0  0.71875 0.125 0  0.75 0.125 0  0.78125 0.125 0  0.8125 0.125 0  0.84375 0.125 0  0.875 0.125 0  0.90625 0.125 0  0.9375 0.125 0  0.96875 0.125 0  1 0.125 0  0 0.15625 0  0.03125 0.15625 0  0.0625 0.15625 0  0.09375 0.15625 0  0.125 0.15625 0  0.15625 0.15625 0  0.1875 0.15625 0  0.21875 0.15625 0  0.25 0.15625 0  0.28125 0.15625 0  0.3125 0.15625 0  0.34375 0.15625 0  0.375 0.15625 0  0.40625 0.15625 0  0.4375 0.15625 0  0.46875 0.15625 0  0.5 0.15625 0  0.53125 0.15625 0  0.5625 0.15625 0  0.59375 0.15625 0  0.625 0.15625 0  0.65625 0.15625 0  0.6875 0.15625 0  0.71875 0.15625 0  0.75 0.15625 0  0.78125 0.15625 0  0.8125 0.15625 0  0.84375 0.15625 0  0.875 0.15625 0  0.90625 0.15625 0  0.9375 0.15625 0  0.96875 0.15625 0  1 0.15625 0  0 0.1875 0  0.03125 0.1875 0  0.0625 0.1875 0  0.09375 0.1875 0  0.125 0.1875 0  0.15625 0.1875 0  0.1875 0.1875 0  0.21875 0.1875 0  0.25 0.1875 0  0.28125 0.1875 0  0.3125 0.1875 0  0.34375 0.1875 0  0.375 0.1875 0  0.40625 0.1875 0  0.4375 0.1875 0  0.46875 0.1875 0  0.5 0.1875 0  0.53125 0.1875 0  0.5625 0.1875 0  0.59375 0.1875 0  0.625 0.1875 0  0.65625 0.1875 0  0.6875 0.1875 0  0.71875 0.1875 0  0.75 0.1875 0  0.78125 0.1875 0  0.8125 0.1875 0  0.84375 0.1875 0  0.875 0.1875 0  0.90625 0.1875 0  0.9375 0.1875 0  0.96875 0.1875 0  1 0.1875 0  0 0.21875 0  0.03125 0.21875 0  0.0625 0.21875 0  0.09375 0.21875 0  0.125 0.21875 0  0.15625 0.21875 0  0.1875 0.21875 0  0.21875 0.21875 0  0.25 0.21875 0  0.28125 0.21875 0  0.3125 0.21875 0  0.34375 0.21875 0  0.375 0.21875 0  0.40625 0.21875 0  0.4375 0.21875 0  0.46875 0.21875 0  0.5 0.21875 0  0.53125 0.21875 0  0.5625 0.21875 0  0.59375 0.21875 0  0.625 0.21875 0  0.65625 0.21875 0  0.6875 0.21875 0  0.71875 0.21875 0  0.75 0.21875 0  0.78125 0.21875 0  0.8125 0.21875 0  0.84375 0.21875 0  0.875 0.21875 0  0.90625 0.21875 0  0.9375 0.21875 0  0.96875 0.21875 0  1 0.21875 0  0 0.25 0  0.03125 0.25 0  0.0625 0.25 0  0.09375 0.25 0  0.125 0.25 0  0.15625 0.25 0  0.1875 0.25 0  0.21875 0.25 0  0.25 0.25 0  0.28125 0.25 0  0.3125 0.25 0  0.34375 0.25 0  0.375 0.25 0  0.40625 0.25 0  0.4375 0.25 0  0.46875 0.25 0  0.5 0.25 0  0.53125 0.25 0  0.5625 0.25 0  0.59375 0.25 0  0.625 0.25 0  0.65625 0.25 0  0.6875 0.25 0  0.71875 0.25 0  0.75 0.25 0  0.78125 0.25 0  0.8125 0.25 0  0.84375 0.25 0  0.875 0.25 0  0.90625 0.25 0  0.9375 0.25 0  0.96875 0.25 0  1 0.25 0  0 0.28125 0  0.03125 0.28125 0  0.0625 0.28125 0  0.09375 0.28125 0  0.125 0.28125 0  0.15625 0.28125 0  0.1875 0.28125 0  0.21875 0.28125 0  0.25 0.28125 0  0.28125 0.28125 0  0.3125 0.28125 0  0.34375 0.28125 0  0.375 0.28125 0  0.40625 0.28125 0  0.4375 0.28125 0  0.46875 0.28125 0  0.5 0.28125 0  0.53125 0.28125 0  0.5625 0.28125 0  0.59375 0.28125 0  0.625 0.28125 0  0.65625 0.28125 0  0.6875 0.28125 0  0.71875 0.28125 0  0.75 0.28125 0  0.78125 0.28125 0  0.8125 0.28125 0  0.84375 0.28125 0  0.875 0.28125 0  0.90625 0.28125 0  0.9375 0.28125 0  0.96875 0.28125 0  1 0.28125 0  0 0.3125 0  0.03125 0.3125 0  0.0625 0.3125 0  0.09375 0.3125 0  0.125 0.3125 0  0.15625 0.3125 0  0.1875 0.3125 0  0.21875 0.3125 0  0.25 0.3125 0  0.28125 0.3125 0  0.3125 0.3125 0  0.34375 0.3125 0  0.375 0.3125 0  0.40625 0.3125 0  0.4375 0.3125 0  0.46875 0.3125 0  0.5 0.3125 0  0.53125 0.3125 0  0.5625 0.3125 0  0.59375 0.3125 0  0.625 0.3125 0  0.65625 0.3125 0  0.6875 0.3125 0  0.71875 0.3125 0  0.75 0.3125 0  0.78125 0.3125 0  0.8125 0.3125 0  0.84375 0.3125 0  0.875 0.3125 0  0.90625 0.3125 0  0.9375 0.3125 0  0.96875 0.3125 0  1 0.3125 0  0 0.34375 0  0.03125 0.34375 0  0.0625 0.34375 0  0.09375 0.34375 0  0.125 0.34375 0  0.15625 0.34375 0  0.1875 0.34375 0  0.21875 0.34375 0  0.25 0.34375 0  0.28125 0.34375 0  0.3125 0.34375 0  0.34375 0.34375 0  0.375 0.34375 0  0.40625 0.34375 0  0.4375 0.34375 0  0.46875 0.34375 0  0.5 0.34375 0  0.53125 0.34375 0  0.5625 0.34375 0  0.59375 0.34375 0  0.625 0.34375 0  0.65625 0.34375 0  0.6875 0.34375 0  0.71875 0.34375 0  0.75 0.34375 0  0.78125 0.34375 0  0.8125 0.34375 0  0.84375 0.34375 0  0.875 0.34375 0  0.90625 0.34375 0  0.9375 0.34375 0  0.96875 0.34375 0  1 0.34375 0  0 0.375 0  0.03125 0.375 0  0.0625 0.375 0  0.09375 0.375 0  0.125 0.375 0  0.15625 0.375 0  0.1875 0.375 0  0.21875 0.375 0  0.25 0.375 0  0.28125 0.375 0  0.3125 0.375 0  0.34375 0.375 0  0.375 0.375 0  0.40625 0.375 0  0.4375 0.375 0  0.46875 0.375 0  0.5 0.375 0  0.53125 0.375 0  0.5625 0.375 0  0.59375 0.375 0  0.625 0.375 0  0.65625 0.375 0  0.6875 0.375 0  0.71875 0.375 0  0.75 0.375 0  0.78125 0.375 0  0.8125 0.375 0  0.84375 0.375 0  0.875 0.375 0  0.90625 0.375 0  0.9375 0.375 0  0.96875 0.375 0  1 0.375 0  0 0.40625 0  0.03125 0.40625 0  0.0625 0.40625 0  0.09375 0.40625 0  0.125 0.40625 0  0.15625 0.40625 0  0.1875 0.40625 0  0.21875 0.40625 0  0.25 0.40625 0  0.28125 0.40625 0  0.3125 0.40625 0  0.34375 0.40625 0  0.375 0.40625 0  0.40625 0.40625 0  0.4375 0.40625 0  0.46875 0.40625 0  0.5 0.40625 0  0.53125 0.40625 0  0.5625 0.40625 0  0.59375 0.40625 0  0.625 0.40625 0  0.65625 0.40625 0  0.6875 0.40625 0  0.71875 0.40625 0  0.75 0.40625 0  0.78125 0.40625 0  0.8125 0.40625 0  0.84375 0.40625 0  0.875 0.40625 0  0.90625 0.40625 0  0.9375 0.40625 0  0.96875 0.40625 0  1 0.40625 0  0 0.4375 0  0.03125 0.4375 0  0.0625 0.4375 0  0.09375 0.4375 0  0.125 0.4375 0  0.15625 0.4375 0  0.1875 0.4375 0  0.21875 0.4375 0  0.25 0.4375 0  0.28125 0.4375 0  0.3125 0.4375 0  0.34375 0.4375 0  0.375 0.4375 0  0.40625 0.4375 0  0.4375 0.4375 0  0.46875 0.4375 0  0.5 0.4375 0  0.53125 0.4375 0  0.5625 0.4375 0  0.59375 0.4375 0  0.625 0.4375 0  0.65625 0.4375 0  0.6875 0.4375 0  0.71875 0.4375 0  0.75 0.4375 0  0.78125 0.4375 0  0.8125 0.4375 0  0.84375 0.4375 0  0.875 0.4375 0  0.90625 0.4375 0  0.9375 0.4375 0  0.96875 0.4375 0  1 0.4375 0  0 0.46875 0  0.03125 0.46875 0  0.0625 0.46875 0  0.09375 0.46875 0  0.125 0.46875 0  0.15625 0.46875 0  0.1875 0.46875 0  0.21875 0.46875 0  0.25 0.46875 0  0.28125 0.46875 0  0.3125 0.46875 0  0.34375 0.46875 0  0.375 0.46875 0  0.40625 0.46875 0  0.4375 0.46875 0  0.46875 0.46875 0  0.5 0.46875 0  0.53125 0.46875 0  0.5625 0.46875 0  0.59375 0.46875 0  0.625 0.46875 0  0.65625 0.46875 0  0.6875 0.46875 0  0.71875 0.46875 0  0.75 0.46875 0  0.78125 0.46875 0  0.8125 0.46875 0  0.84375 0.46875 0  0.875 0.46875 0  0.90625 0.46875 0  0.9375 0.46875 0  0.96875 0.46875 0  1 0.46875 0  0 0.5 0  0.03125 0.5 0  0.0625 0.5 0  0.09375 0.5 0  0.125 0.5 0  0.15625 0.5 0  0.1875 0.5 0  0.21875 0.5 0  0.25 0.5 0  0.28125 0.5 0  0.3125 0.5 0  0.34375 0.5 0  0.375 0.5 0  0.40625 0.5 0  0.4375 0.5 0  0.46875 0.5 0  0.5 0.5 0  0.53125 0.5 0  0.5625 0.5 0  0.59375 0.5 0  0.625 0.5 0  0.65625 0.5 0  0.6875 0.5 0  0.71875 0.5 0  0.75 0.5 0  0.78125 0.5 0  0.8125 0.5 0  0.84375 0.5 0  0.875 0.5 0  0.90625 0.5 0  0.9375 0.5 0  0.96875 0.5 0  1 0.5 0  0 0.53125 0  0.03125 0.53125 0  0.0625 0.53125 0  0.09375 0.53125 0  0.125 0.53125 0  0.15625 0.53125 0  0.1875 0.53125 0  0.21875 0.53125 0  0.25 0.53125 0  0.28125 0.53125 0  0.3125 0.53125 0  0.34375 0.53125 0  0.375 0.53125 0  0.40625 0.53125 0  0.4375 0.53125 0  0.46875 0.53125 0  0.5 0.53125 0  0.53125 0.53125 0  0.5625 0.53125 0  0.59375 0.53125 0  0.625 0.53125 0  0.65625 0.53125 0  0.6875 0.53125 0  0.71875 0.53125 0  0.75 0.53125 0  0.78125 0.531
[...]
<PointData  Scalars="eigenfunction"> 
<DataArray  type="Float64"  Name="eigenfunction"  format="ascii">0.0000000000000000e+00  0.0000000000000000e+00  0.0000000000000000e+00  0.0000000000000000e+00  0.0000000000000000e+00  0.0000000000000000e+00  0.0000000000000000e+00  0.0000000000000000e+00  0.0000000000000000e+00  0.0000000000000000e+00  0.0000000000000000e+00  0.0000000000000000e+00  0.0000000000000000e+00  0.0000000000000000e+00  0.0000000000000000e+00  0.0000000000000000e+00  0.0000000000000000e+00  0.0000000000000000e+00  0.0000000000000000e+00  0.0000000000000000e+00  0.0000000000000000e+00  0.0000000000000000e+00  0.0000000000000000e+00  0.0000000000000000e+00  0.0000000000000000e+00  0.0000000000000000e+00  0.0000000000000000e+00  0.0000000000000000e+00  0.0000000000000000e+00  0.0000000000000000e+00  0.0000000000000000e+00  0.0000000000000000e+00  0.0000000000000000e+00  0.0000000000000000e+00  -1.6511851661047222e-01  -3.1831328324493380e-01  -4.5082421791638627e-01  -5.5499324059745292e-01  -6.2501002233442537e-01  -6.5737838744897337e-01  -6.5115911777250335e-01  -6.0800024984923629e-01  -5.3196455643528484e-01  -4.2917421522009097e-01  -3.0730514273868803e-01  -1.7497449299011550e-01  -4.1072639583707223e-02  8.5905360681545639e-02  1.9847469086242761e-01  2.9067331400920360e-01  3.5843276129462964e-01  3.9978042321758778e-01  4.1486135265562218e-01  4.0578319434817428e-01  3.7630296433210758e-01  3.3138771181214655e-01  2.7669146125348398e-01  2.1799736983173817e-01  1.6067619757026610e-01  1.0920981334689389e-01  6.6821790590547797e-02  3.5246809187470224e-02  1.4657545757443425e-02  3.7532674043491872e-03  1.0653782046847318e-15  0.0000000000000000e+00  0.0000000000000000e+00  -3.1831328324493369e-01  -6.1463856320470833e-01  -8.7124842650889101e-01  -1.0730069868651400e+00  -1.2085107857533375e+00  -1.2709120400664153e+00  -1.2583670650115326e+00  -1.1740875623177025e+00  -1.0260010559474648e+00  -8.2605555883432935e-01  -5.8923057174754967e-01  -3.3233898223529812e-01  -7.2720107416746713e-02  1.7306848320896107e-01  3.9045430842583284e-01  5.6785284848597850e-01  6.9739268554927147e-01  7.7531035577395313e-01  8.0199126729560322e-01  7.8166364431891500e-01  7.2178211315500185e-01  6.3216369230140823e-01  5.2395933698671593e-01  4.0855707712172662e-01  2.9651709404780052e-01  1.9663447927907843e-01  1.1521236790192385e-01  5.5607851863627933e-02  1.8087418817439690e-02  4.0689079588476151e-15  -3.7532674043450043e-03  0.0000000000000000e+00  0.0000000000000000e+00  -4.5082421791638599e-01  -8.7124842650889045e-01  -1.2354616681952575e+00  -1.5215675621646918e+00  -1.7131306199243381e+00  -1.8003124523015346e+00  -1.7804953504089343e+00  -1.6583455460343595e+00  -1.4453175403944649e+00  -1.1586467258208180e+00  -8.1991854829014954e-01  -4.5333587167472478e-01  -8.3829348137791498e-02  2.6483344443425483e-01  5.7178647107483094e-01  8.2051269611949540e-01  9.9988846989583446e-01  1.1047485863605950e+00  1.1359376792118987e+00  1.0998580468079138e+00  1.0075670719619836e+00  8.7351541170014146e-01  7.1404680159668710e-01  5.4579910909946439e-01  3.8415259525305528e-01  2.4186471458241698e-01  1.2801184880963831e-01  4.7328866836600064e-02  8.3075807919680832e-15  -1.8087418817428029e-02  -1.4657545757437421e-02  0.0000000000000000e+00  0.0000000000000000e+00  -5.5499324059745203e-01  -1.0730069868651384e+00  -1.5215675621646907e+00  -1.8731795800036468e+00  -2.1072575058782621e+00  -2.2115376299975860e+00  -2.1828494775246101e+00  -2.0271849463909803e+00  -1.7590643946487479e+00  -1.4002576533891242e+00  -9.7797069611028320e-01  -5.2265159983181986e-01  -6.5599141165336231e-02  3.6342849674408195e-01  7.3840998838250116e-01  1.0388861460436445e+00  1.2512719484085775e+00  1.3695585226822764e+00  1.3953615945361777e+00  1.3373294457026998e+00  1.2099782690461103e+00  1.0320712446774631e+00  8.2469550121728930e-01  6.0921512479435047e-01  4.0528649882848639e-01  2.2911385659953681e-01  9.2098813071514102e-02  1.2619703041501630e-14  -4.7328866836579574e-02  -5.5607851863613528e-02  -3.5246809187462785e-02  0.0000000000000000e+00  0.0000000000000000e+00  -6.2501002233442438e-01  -1.2085107857533353e+00  -1.7131306199243352e+00  -2.1072575058782599e+00  -2.3672878812962272e+00  -2.4792611330017174e+00  -2.4397466631223796e+00  -2.2559137183399640e+00  -1.9447830911019268e+00  -1.5317279450166335e+00  -1.0483527887141877e+00  -5.2993004865562487e-01  -1.2608687950468961e-02  4.6937395814105887e-01  8.8624883951360711e-01  1.2148342147170104e+00  1.4400504021273468e+00  1.5557169920503628e+00  1.5645818772833395e+00  1.4775979105408958e+00  1.3125275214734387e+00  1.0920126412984970e+00  8.4129186284925028e-01  5.8577506776189914e-01  3.4869536330432022e-01  1.4904830851702722e-01  1.6045641014746364e-14  -9.2098813071485652e-02  -1.2801184880961533e-01  -1.1521236790190764e-01  -6.6821790590539415e-02  0.0000000000000000e+00  0.0000000000000000e+00  -6.5737838744897148e-01  -1.2709120400664113e+00  -1.8003124523015288e+00  -2.2115376299975820e+00  -2.4792611330017156e+00  -2.5886597012552519e+00  -2.5363768828386171e+00  -2.3305877597632971e+00  -1.9901645043555265e+00  -1.5430170972961750e+00  -1.0237515955368541e+00  -4.7084409918969861e-01  7.6432635657141090e-02  5.8107438597120997e-01  1.0111500106389120e+00  1.3421174214253482e+00  1.5584667887777612e+00  1.6545659937041253e+00  1.6346528555981532e+00  1.5119924853516769e+00  1.3072898406949414e+00  1.0465109836423045e+00  7.5831616567205318e-01  4.7133940270961444e-01  2.1155993487283087e-01  1.7671697104972461e-14  -1.4904830851699347e-01  -2.2911385659950684e-01  -2.4186471458239275e-01  -1.9663447927906141e-01  -1.0920981334688511e-01  0.0000000000000000e+00  0.0000000000000000e+00  -6.5115911777250035e-01  -1.2583670650115271e+00  -1.7804953504089265e+00  -2.1828494775246030e+00  -2.4397466631223748e+00  -2.5363768828386135e+00  -2.4697987830126165e+00  -2.2489927821929259e+00  -1.8939716940333042e+00  -1.4340274283183336e+00  -9.0526392520918864e-01  -3.4762528960365174e-01  1.9833090048358359e-01  6.9464542021140485e-01  1.1088879053543361e+00  1.4165654831190218e+00  1.6028152814425916e+00  1.6632493027506972e+00  1.6038938773878448e+00  1.4402442623345164e+00  1.1955311363552221e+00  8.9836315595521365e-01  5.7996252387686253e-01  2.7124409624212531e-01  1.6915262447718758e-14  -2.1155993487279609e-01  -3.4869536330428691e-01  -4.0528649882845669e-01  -3.8415259525303114e-01  -2.9651709404778365e-01  -1.6067619757025739e-01  0.0000000000000000e+00  0.0000000000000000e+00  -6.0800024984923251e-01  -1.1740875623176954e+00  -1.6583455460343497e+00  -2.0271849463909706e+00  -2.2559137183399547e+00  -2.3305877597632909e+00  -2.2489927821929205e+00  -2.0206793159748275e+00  -1.6660514798743600e+00  -1.2145890603323963e+00  -7.0235479760877217e-01  -1.6899831316504499e-01  3.4549030016284188e-01  8.0400415799838354e-01  1.1752507081798929e+00  1.4361467467284357e+00  1.5734808446887998e+00  1.5847105342221508e+00  1.4778366957588138e+00  1.2703774593318975e+00  9.8754166420414136e-01  6.5977076010651747e-01  3.1987198462571342e-01  1.3691250531604360e-14  -2.7124409624209445e-01  -4.7133940270958252e-01  -5.8577506776186838e-01  -6.0921512479432272e-01  -5.4579910909944185e-01  -4.0855707712171097e-01  -2.1799736983173010e-01  0.0000000000000000e+00  0.0000000000000000e+00  -5.3196455643528062e-01  -1.0260010559474562e+00  -1.4453175403944540e+00  -1.7590643946487341e+00  -1.9447830911019131e+00  -1.9901645043555127e+00  -1.8939716940332925e+00  -1.6660514798743533e+00  -1.3264353941147518e+00  -9.0360718031004172e-01  -4.3208431699069466e-01  5.0481004644596351e-02  5.0643546316069621e-01  9.0122715327574188e-01  1.2062145948940100e+00  1.4009453103792355e+00  1.4747130562989839e+00  1.4272652404812829e+00  1.2686056105986505e+00  1.0179156254241259e+00  7.0169423004251086e-01  3.5128341188261158e-01  8.5266765776208047e-15  -3.1987198462569133e-01  -5.7996252387683667e-01  -7.5831616567202587e-01  -8.4129186284922386e-01  -8.2469550121726509e-01  -7.1404680159666734e-01  -5.2395933698670227e-01  -2.7669146125347699e-01  0.0000000000000000e+00  0.0000000000000000e+00  -4.2917421522008570e-01  -8.2605555883431947e-01  -1.1586467258208040e+00  -1.4002576533891067e+00  -1.5317279450166144e+00  -1.5430170972961559e+00  -1.4340274283183150e+00  -1.2145890603323835e+00  -9.0360718031003495e-01  -5.2744307543043145e-01  -1.1766599013747783e-01  2.9163300888492677e-01  6.6673598474459050e-01  9.7715426286716400e-01  1.1982008829668134e+00  1.3130584047090161e+00  1.3141641690806303e+00  1.2037937345842993e+00  9.9379237605977822e-01  7.0447830525874899e-01  3.6281325642395862e-01  2.9142374569211298e-15  -3.5128341188260076e-01  -6.5977076010650193e-01  -8.9836315595519500e-01  -1.0465109836422832e+00  -1.0920126412984763e+00  -1.0320712446774443e+00  -8.7351541170012592e-01  -6.3216369230139757e-01  -3.3138771181214116e-01  0.0000000000000000e+00  0.0000000000000000e+00  -3.0730514273868198e-01  -5.8923057174753812e-01  -8.1991854829013278e-01  -9.7797069611026244e-01  -1.0483527887141648e+00  -1.0237515955368306e+00  -9.0526392520916599e-01  -7.0235479760875341e-01  -4.3208431699068151e-01  -1.1766599013747109e-01  2.1352250345759741e-01  5.3230680886875736e-01  8.1025836652297789e-01  1.0221918864462913e+00  1.1484001204382508e+00  1.1764294057665141e+00  1.1022378773249650e+00  9.3063072568584593e-01  6.7492897358213466e-01  3.5589462907507657e-01  -2.0457755406483611e-15  -3.6281325642395851e-01  -7.0169423004250697e-01  -9.8754166420413381e-01  -1.1955311363552117e+00  -1.3072898406949289e+00  -1.3125275214734249e+00  -1.2099782690460972e+00  -1.0075670719619727e+00  -7.2178211315499430e-01  -3.7630296433210386e-01  0.0000000000000000e+00  0.0000000000000000e+00  -1.7497449299010895e-01  -3.3233898223528530e-01  -4.5333587167470668e-01  -5.2265159983179732e-01  -5.2993004865559978e-01  -4.7084409918967168e-01  -3.4762528960362549e-01  -1.6899831316502173e-01  5.0481004644615059e-02  2.9163300888493998e-01  5.3230680886876414e-01  7.4933757006841450e-01  9.2063909673925226e-01  1.0272479424323477e+00  1.0551368365253730e+00  9.9663275100151871e-01  8.5130713644100198e-01  6.2625011219536619e-01  3.3569299473165759e-01  -5.4376810695004036e-15  -3.5589462907508473e-01  -7.0447830525875466e-01  -1.0179156254241291e+00  -1.2703774593318979e+00  -1.4402442623345144e+00  -1.5119924853516735e+00  -1.4775979105408905e+00  -1.3373294457026932e+00  -1.0998580468079080e+00  -7.8166364431891122e-01  -4.0578319434817245e-01  0.0000000000000000e+00  0.0000000000000000e+00  -4.1072639583700520e-02  -7.2720107416733584e-02  -8.3829348137772805e-02  -6.5599141165312930e-02  -1.2608687950442413e-02  7.6432635657169609e-02  1.9833090048361193e-01  3.4549030016286847e-01  5.0643546316071941e-01  6.6673598474460904e-01  8.1025836652299033e-01  9.2063909673925870e-01  9.8284998137042845e-01  9.8471521673159823e-01  9.1824032745576845e-01  7.8062617458492101e-01  5.7486586914548288e-01  3.0985667215780538e-01  -6.7268753597052408e-15  -3.3569299473167064e-01  -6.7492897358214665e-01  -9.9379237605978887e-01  -1.2686056105986596e+00  -1.4778366957588214e+00  -1.6038938773878506e+00  -1.6346528555981579e+00  -1.5645818772833420e+00  -1.3953615945361779e+00  -1.1359376792118980e+00  -8.0199126729560322e-01  -4.1486135265562207e-01  0.0000000000000000e+00  0.0000000000000000e+00  8.5905360681552065e-02  1.7306848320897369e-01  2.6483344443427304e-01  3.6342849674410455e-01  4.6937395814108479e-01  5.8107438597123817e-01  6.9464542021143383e-01  8.0400415799841152e-01  9.0122715327576730e-01  9.7715426286718599e-01  1.0221918864463078e+00  1.0272479424323593e+00  9.8471521673160367e-01  8.8941112040103798e-01  7.3938141315565764e-01  5.3648341200471961e-01  2.8668017857429517e-01  -5.5169274503576269e-15  -3.0985667215781854e-01  -6.2625011219538085e-01  -9.3063072568586114e-01  -1.2037937345843146e+00  -1.4272652404812978e+00  -1.5847105342221648e+00  -1.6632493027507105e+00  -1.6545659937041368e+00  -1.5557169920503722e+00  -1.3695585226822831e+00  -1.1047485863605997e+00  -7.7531035577395668e-01  -3.9978042321758939e-01  0.0000000000000000e+00  0.0000000000000000e+00  1.9847469086243325e-01  3.9045430842584417e-01  5.7178647107484726e-01  7.3840998838252192e-01  8.8624883951363076e-01  1.0111500106389373e+00  1.1088879053543630e+00  1.1752507081799199e+00  1.2062145948940364e+00  1.1982008829668367e+00  1.1484001204382708e+00  1.0551368365253890e+00  9.1824032745577799e-01  7.3938141315566219e-01  5.2233333699803275e-01  2.7311734061442983e-01  -2.2678776650331587e-15  -2.8668017857430345e-01  -5.7486586914549442e-01  -8.5130713644101685e-01  -1.1022378773249821e+00  -1.3141641690806491e+00  -1.4747130562990027e+00  -1.5734808446888189e+00  -1.6028152814426113e+00  -1.5584667887777790e+00  -1.4400504021273621e+00  -1.2512719484085901e+00  -9.9988846989584390e-01  -6.9739268554927814e-01  -3.5843276129463270e-01  0.0000000000000000e+00  0.0000000000000000e+00  2.9067331400920809e-01  5.6785284848598749e-01  8.2051269611950839e-01  1.0388861460436611e+00  1.2148342147170297e+00  1.3421174214253693e+00  1.4165654831190448e+00  1.4361467467284597e+00  1.4009453103792588e+00  1.3130584047090383e+00  1.1764294057665350e+00  9.9663275100153625e-01  7.8062617458493400e-01  5.3648341200472827e-01  2.7311734061443410e-01  1.7818353511699957e-15  -2.7311734061443022e-01  -5.3648341200472427e-01  -7.8062617458492989e-01  -9.9663275100153148e-01  -1.1764294057665301e+00  -1.3130584047090350e+00  -1.4009453103792571e+00  -1.4361467467284590e+00  -1.4165654831190453e+00  -1.3421174214253708e+00  -1.2148342147170310e+00  -1.0388861460436616e+00  -8.2051269611950861e-01  -5.6785284848598749e-01  -2.9067331400920809e-01  0.0000000000000000e+00  0.0000000000000000e+00  3.5843276129463247e-01  6.9739268554927769e-01  9.9988846989584323e-01  1.2512719484085881e+00  1.4400504021273604e+00  1.5584667887777772e+00  1.6028152814426089e+00  1.5734808446888187e+00  1.4747130562990023e+00  1.3141641690806498e+00  1.1022378773249852e+00  8.5130713644101996e-01  5.7486586914549809e-01  2.8668017857430683e-01  5.5650080523327797e-15  -2.7311734061442644e-01  -5.2233333699802864e-01  -7.3938141315565764e-01  -9.1824032745577300e-01  -1.0551368365253833e+00  -1.1484001204382654e+00  -1.1982008829668322e+00  -1.2062145948940330e+00  -1.1752507081799175e+00  -1.1088879053543617e+00  -1.0111500106389368e+00  -8.8624883951363054e-01  -7.3840998838252170e-01  -5.7178647107484704e-01  -3.9045430842584383e-01  -1.9847469086243311e-01  0.0000000000000000e+00  0.0000000000000000e+00  3.9978042321758916e-01  7.7531035577395646e-01  1.1047485863605997e+00  1.3695585226822822e+00  1.5557169920503708e+00  1.6545659937041359e+00  1.6632493027507091e+00  1.5847105342221646e+00  1.4272652404812973e+00  1.2037937345843148e+00  9.3063072568586236e-01  6.2625011219538262e-01  3.0985667215782065e-01  7.6865054621722133e-15  -2.8668017857429290e-01  -5.3648341200471683e-01  -7.3938141315565375e-01  -8.8941112040103354e-01  -9.8471521673159912e-01  -1.0272479424323542e+00  -1.0221918864463027e+00  -9.7715426286718077e-01  -9.0122715327576319e-01  -8.0400415799840830e-01  -6.9464542021143127e-01  -5.8107438597123651e-01  -4.6937395814108379e-01  -3.6342849674410382e-01  -2.6483344443427226e-01  -1.7306848320897317e-01  -8.5905360681551871e-02  0.0000000000000000e+00  0.0000000000000000e+00  4.1486135265562174e-01  8.0199126729560266e-01  1.1359376792118980e+00  1.3953615945361775e+00  1.5645818772833409e+00  1.6346528555981568e+00  1.6038938773878499e+00  1.4778366957588212e+00  1.2686056105986592e+00  9.9379237605978865e-01  6.7492897358214654e-01  3.3569299473167086e-01  7.2600176780914335e-15  -3.0985667215780471e-01  -5.7486586914548155e-01  -7.8062617458491934e-01  -9.1824032745576623e-01  -9.8471521673159490e-01  -9.8284998137042423e-01  -9.2063909673925381e-01  -8.1025836652298533e-01  -6.6673598474460427e-01  -5.0643546316071486e-01  -3.4549030016286464e-01  -1.9833090048360894e-01  -7.6432635657167389e-02  1.2608687950444010e-02  6.5599141165314095e-02  8.3829348137773610e-02  7.2720107416734112e-02  4.1072639583700714e-02  0.0000000000000000e+00  0.0000000000000000e+00  4.0578319434817217e-01  7.8166364431891100e-01  1.0998580468079082e+00  1.3373294457026934e+00  1.4775979105408898e+00  1.5119924853516717e+00  1.4402442623345131e+00  1.2703774593318964e+00  1.0179156254241271e+00  7.0447830525875310e-01  3.5589462907508335e-01  4.2958787318096281e-15  -3.3569299473165859e-01  -6.2625011219536753e-01  -8.5130713644100287e-01  -9.9663275100151894e-01  -1.0551368365253735e+00  -1.0272479424323466e+00  -9.2063909673925015e-01  -7.4933757006841084e-01  -5.3230680886875992e-01  -2.9163300888493610e-01  -5.0481004644611402e-02  1.6899831316502514e-01  3.4762528960362871e-01  4.7084409918967435e-01  5.2993004865560156e-01  5.2265159983179854e-01  4.5333587167470735e-01  3.3233898223528580e-01  1.7497449299010917e-01  0.0000000000000000e+00  0.0000000000000000e+00  3.7630296433210364e-01  7.2178211315499397e-01  1.0075670719619725e+00  1.2099782690460974e+00  1.3125275214734247e+00  1.3072898406949274e+00  1.1955311363552101e+00  9.8754166420413192e-01  7.0169423004250409e-01  3.6281325642395562e-01  -7.3426532190050698e-16  -3.5589462907507913e-01  -6.7492897358213710e-01  -9.3063072568584870e-01  -1.1022378773249681e+00  -1.1764294057665161e+00  -1.1484001204382528e+00  -1.0221918864462922e+00  -8.1025836652297811e-01  -5.3230680886875625e-01  -2.1352250345759530e-01  1.1766599013747328e-01  4.3208431699068406e-01  7.0235479760875585e-01  9.0526392520916865e-01  1.0237515955368321e+00  1.0483527887141659e+00  9.7797069611026366e-01  8.1991854829013355e-01  5.8923057174753879e-01  3.0730514273868237e-01  0.0000000000000000e+00  0.0000000000000000e+00  3.3138771181214116e-01  6.3216369230139735e-01  8.7351541170012559e-01  1.0320712446774443e+00  1.0920126412984759e+00  1.0465109836422821e+00  8.9836315595519278e-01  6.5977076010649904e-01  3.5128341188259737e-01  -6.8532675898458407e-15  -3.6281325642396273e-01  -7.0447830525875332e-01  -9.9379237605978243e-01  -1.2037937345843037e+00  -1.3141641690806352e+00  -1.3130584047090201e+00  -1.1982008829668171e+00  -9.7715426286716689e-01  -6.6673598474459339e-01  -2.9163300888492832e-01  1.1766599013747729e-01  5.2744307543043134e-01  9.0360718031003606e-01  1.2145890603323846e+00  1.4340274283183165e+00  1.5430170972961559e+00  1.5317279450166146e+00  1.4002576533891069e+00  1.1586467258208040e+00  8.2605555883432014e-01  4.2917421522008603e-01  0.0000000000000000e+00  0.0000000000000000e+00  2.7669146125347699e-01  5.2395933698670227e-01  7.1404680159666756e-01  8.2469550121726487e-01  8.4129186284922308e-01  7.5831616567202442e-01  5.7996252387683433e-01  3.1987198462568783e-01  -1.2890492382538861e-14  -3.5128341188261680e-01  -7.0169423004251652e-01  -1.0179156254241319e+00  -1.2686056105986554e+00  -1.4272652404812882e+00  -1.4747130562989892e+00  -1.4009453103792413e+00  -1.2062145948940164e+00  -9.0122715327574732e-01  -5.0643546316070098e-01  -5.0481004644600161e-02  4.3208431699069183e-01  9.0360718031004006e-01  1.3264353941147518e+00  1.6660514798743524e+00  1.8939716940332905e+00  1.9901645043555112e+00  1.9447830911019117e+00  1.7590643946487328e+00  1.4453175403944531e+00  1.0260010559474566e+00  5.3196455643528084e-01  0.0000000000000000e+00  0.0000000000000000e+00  2.1799736983173004e-01  4.0855707712171074e-01  5.4579910909944163e-01  6.0921512479432205e-01  5.8577506776186705e-01  4.7133940270958069e-01  2.7124409624209173e-01  -1.7476575540885370e-14  -3.1987198462571825e-01  -6.5977076010652358e-01  -9.8754166420414824e-01  -1.2703774593319039e+00  -1.4778366957588198e+00  -1.5847105342221572e+00  -1.5734808446888058e+00  -1.4361467467284428e+00  -1.1752507081799000e+00  -8.0400415799839065e-01  -3.4549030016284837e-01  1.6899831316503933e-01  7.023547976