<?xml version="1.0"?>
<VTKFile type="UnstructuredGrid"  version="0.1"  >
<UnstructuredGrid>
<Piece  NumberOfPoints="1089" NumberOfCells="2048">
<Points>
<DataArray  type="Float64"  NumberOfComponents="3"  format="ascii">0 0 0  0.03125 0 0  0.0625 0 0  0.09375 0 0  0.125 0 0  0.15625 0 0  0.1875 0 0  0.21875 0 0  0.25 0 0  0.28125 0 0  0.3125 0 0  0.34375 0 0  0.375 0 0  0.40625 0 0  0.4375 0 0  0.46875 0 0  0.5 0 0  0.53125 0 0  0.5625 0 0  0.59375 0 0  0.625 0 0  0.65625 0 0  0.6875 0 0  0.71875 0 0  0.75 0 0  0.78125 0 0  0.8125 0 0  0.84375 0 0  0.875 0 0  0.90625 0 0  0.9375 0 0  0.96875 0 0  1 0 0  0 0.03125 0  0.03125 0.03125 0  0.0625 0.03125 0  0.09375 0.03125 0  0.125 0.03125 0  0.15625 0.03125 0  0.1875 0.03125 0  0.21875 0.03125 0  0.25 0.03125 0  0.28125 0.03125 0  0.3125 0.03125 0  0.34375 0.03125 0  0.375 0.03125 0  0.40625 0.03125 0  0.4375 0.03125 0  0.46875 0.03125 0  0.5 0.03125 0  0.53125 0.03125 0  0.5625 0.03125 0  0.59375 0.03125 0  0.625 0.03125 0  0.65625 0.03125 0  0.6875 0.03125 0  0.71875 0.03125 0  0.75 0.03125 0  0.78125 0.03125 0  0.8125 0.03125 0  0.84375 0.03125 0  0.875 0.03125 0  0.90625 0.03125 0  0.9375 0.03125 0  0.96875 0.03125 0  1 0.03125 0  0 0.0625 0  0.03125 0.0625 0  0.0625 0.0625 0  0.09375 0.0625 0  0.125 0.0625 0  0.15625 0.0625 0  0.1875 0.0625 0  0.21875 0.0625 0  0.25 0.0625 0  0.28125 0.0625 0  0.3125 0.0625 0  0.34375 0.0625 0  0.375 0.0625 0  0.40625 0.0625 0  0.4375 0.0625 0  0.46875 0.0625 0  0.5 0.0625 0  0.53125 0.0625 0  0.5625 0.0625 0  0.59375 0.0625 0  0.625 0.0625 0  0.65625 0.0625 0  0.6875 0.0625 0  0.71875 0.0625 0  0.75 0.0625 0  0.78125 0.0625 0  0.8125 0.0625 0  0.84375 0.0625 0  0.875 0.0625 0  0.90625 0.0625 0  0.9375 0.0625 0  0.96875 0.0625 0  1 0.0625 0  0 0.09375 0  0.03125 0.09375 0  0.0625 0.09375 0  0.09375 0.09375 0  0.125 0.09375 0  0.15625 0.09375 0  0.1875 0.09375 0  0.21875 0.09375 0  0.25 0.09375 0  0.28125 0.09375 0  0.3125 0.09375 0  0.34375 0.09375 0  0.375 0.09375 0  0.40625 0.09375 0  0.4375 0.09375 0  0.46875 0.09375 0  0.5 0.09375 0  0.53125 0.09375 0  0.5625 0.09375 0  0.59375 0.09375 0  0.625 0.09375 0  0.65625 0.09375 0  0.6875 0.09375 0  0.71875 0.09375 0  0.75 0.09375 0  0.78125 0.09375 0  0.8125 0.09375 0  0.84375 0.09375 0  0.875 0.09375 0  0.90625 0.09375 0  0.9375 0.09375 0  0.96875 0.09375 0  1 0.09375 0  0 0.125 0  0.03125 0.125 0  0.0625 0.125 0  0.09375 0.125 0  0.125 0.125 0  0.15625 0.125 0  0.1875 0.125 0  0.21875 0.125 0  0.25 0.125 0  0.28125 0.125 0  0.3125 0.125 0  0.34375 0.125 0  0.375 0.125 0  0.40625 0.125 0  0.4375 0.125 0  0.46875 0.125 0  0.5 0.125 0  0.53125 0.125 0  0.5625 0.125 0  0.59375 0.125 0  0.625 0.125 0  0.65625 0.125 0  0.6875 0.125 0  0.71875 0.125 0  0.75 0.125 0  0.78125 0.125 0  0.8125 0.125 0  0.84375 0.125 0  0.875 0.125 0  0.90625 0.125 0  0.9375 0.125 0  0.96875 0.125 0  1 0.125 0  0 0.15625 0  0.03125 0.15625 0  0.0625 0.15625 0  0.09375 0.15625 0  0.125 0.15625 0  0.15625 0.15625 0  0.1875 0.15625 0  0.21875 0.15625 0  0.25 0.15625 0  0.28125 0.15625 0  0.3125 0.15625 0  0.34375 0.15625 0  0.375 0.15625 0  0.40625 0.15625 0  0.4375 0.15625 0  0.46875 0.15625 0  0.5 0.15625 0  0.53125 0.15625 0  0.5625 0.15625 0  0.59375 0.15625 0  0.625 0.15625 0  0.65625 0.15625 0  0.6875 0.15625 0  0.71875 0.15625 0  0.75 0.15625 0  0.78125 0.15625 0  0.8125 0.15625 0  0.84375 0.15625 0  0.875 0.15625 0  0.90625 0.15625 0  0.9375 0.15625 0  0.96875 0.15625 0  1 0.15625 0  0 0.1875 0  0.03125 0.1875 0  0.0625 0.1875 0  0.09375 0.1875 0  0.125 0.1875 0  0.15625 0.1875 0  0.1875 0.1875 0  0.21875 0.1875 0  0.25 0.1875 0  0.28125 0.1875 0  0.3125 0.1875 0  0.34375 0.1875 0  0.375 0.1875 0  0.40625 0.1875 0  0.4375 0.1875 0  0.46875 0.1875 0  0.5 0.1875 0  0.53125 0.1875 0  0.5625 0.1875 0  0.59375 0.1875 0  0.625 0.1875 0  0.65625 0.1875 0  0.6875 0.1875 0  0.71875 0.1875 0  0.75 0.1875 0  0.78125 0.1875 0  0.8125 0.1875 0  0.84375 0.1875 0  0.875 0.1875 0  0.90625 0.1875 0  0.9375 0.1875 0  0.96875 0.1875 0  1 0.1875 0  0 0.21875 0  0.03125 0.21875 0  0.0625 0.21875 0  0.09375 0.21875 0  0.125 0.21875 0  0.15625 0.21875 0  0.1875 0.21875 0  0.21875 0.21875 0  0.25 0.21875 0  0.28125 0.21875 0  0.3125 0.21875 0  0.34375 0.21875 0  0.375 0.21875 0  0.40625 0.21875 0  0.4375 0.21875 0  0.46875 0.21875 0  0.5 0.21875 0  0.53125 0.21875 0  0.5625 0.21875 0  0.59375 0.21875 0  0.625 0.21875 0  0.65625 0.21875 0  0.6875 0.21875 0  0.71875 0.21875 0  0.75 0.21875 0  0.78125 0.21875 0  0.8125 0.21875 0  0.84375 0.21875 0  0.875 0.21875 0  0.90625 0.21875 0  0.9375 0.21875 0  0.96875 0.21875 0  1 0.21875 0  0 0.25 0  0.03125 0.25 0  0.0625 0.25 0  0.09375 0.25 0  0.125 0.25 0  0.15625 0.25 0  0.1875 0.25 0  0.21875 0.25 0  0.25 0.25 0  0.28125 0.25 0  0.3125 0.25 0  0.34375 0.25 0  0.375 0.25 0  0.40625 0.25 0  0.4375 0.25 0  0.46875 0.25 0  0.5 0.25 0  0.53125 0.25 0  0.5625 0.25 0  0.59375 0.25 0  0.625 0.25 0  0.65625 0.25 0  0.6875 0.25 0  0.71875 0.25 0  0.75 0.25 0  0.78125 0.25 0  0.8125 0.25 0  0.84375 0.25 0  0.875 0.25 0  0.90625 0.25 0  0.9375 0.25 0  0.96875 0.25 0  1 0.25 0  0 0.28125 0  0.03125 0.28125 0  0.0625 0.28125 0  0.09375 0.28125 0  0.125 0.28125 0  0.15625 0.28125 0  0.1875 0.28125 0  0.21875 0.28125 0  0.25 0.28125 0  0.28125 0.28125 0  0.3125 0.28125 0  0.34375 0.28125 0  0.375 0.28125 0  0.40625 0.28125 0  0.4375 0.28125 0  0.46875 0.28125 0  0.5 0.28125 0  0.53125 0.28125 0  0.5625 0.28125 0  0.59375 0.28125 0  0.625 0.28125 0  0.65625 0.28125 0  0.6875 0.28125 0  0.71875 0.28125 0  0.75 0.28125 0  0.78125 0.28125 0  0.8125 0.28125 0  0.84375 0.28125 0  0.875 0.28125 0  0.90625 0.28125 0  0.9375 0.28125 0  0.96875 0.28125 0  1 0.28125 0  0 0.3125 0  0.03125 0.3125 0  0.0625 0.3125 0  0.09375 0.3125 0  0.125 0.3125 0  0.15625 0.3125 0  0.1875 0.3125 0  0.21875 0.3125 0  0.25 0.3125 0  0.28125 0.3125 0  0.3125 0.3125 0  0.34375 0.3125 0  0.375 0.3125 0  0.40625 0.3125 0  0.4375 0.3125 0  0.46875 0.3125 0  0.5 0.3125 0  0.53125 0.3125 0  0.5625 0.3125 0  0.59375 0.3125 0  0.625 0.3125 0  0.65625 0.3125 0  0.6875 0.3125 0  0.71875 0.3125 0  0.75 0.3125 0  0.78125 0.3125 0  0.8125 0.3125 0  0.84375 0.3125 0  0.875 0.3125 0  0.90625 0.3125 0  0.9375 0.3125 0  0.96875 0.3125 0  1 0.3125 0  0 0.34375 0  0.03125 0.34375 0  0.0625 0.34375 0  0.09375 0.34375 0  0.125 0.34375 0  0.15625 0.34375 0  0.1875 0.34375 0  0.21875 0.34375 0  0.25 0.34375 0  0.28125 0.34375 0  0.3125 0.34375 0  0.34375 0.34375 0  0.375 0.34375 0  0.40625 0.34375 0  0.4375 0.34375 0  0.46875 0.34375 0  0.5 0.34375 0  0.53125 0.34375 0  0.5625 0.34375 0  0.59375 0.34375 0  0.625 0.34375 0  0.65625 0.34375 0  0.6875 0.34375 0  0.71875 0.34375 0  0.75 0.34375 0  0.78125 0.34375 0  0.8125 0.34375 0  0.84375 0.34375 0  0.875 0.34375 0  0.90625 0.34375 0  0.9375 0.34375 0  0.96875 0.34375 0  1 0.34375 0  0 0.375 0  0.03125 0.375 0  0.0625 0.375 0  0.09375 0.375 0  0.125 0.375 0  0.15625 0.375 0  0.1875 0.375 0  0.21875 0.375 0  0.25 0.375 0  0.28125 0.375 0  0.3125 0.375 0  0.34375 0.375 0  0.375 0.375 0  0.40625 0.375 0  0.4375 0.375 0  0.46875 0.375 0  0.5 0.375 0  0.53125 0.375 0  0.5625 0.375 0  0.59375 0.375 0  0.625 0.375 0  0.65625 0.375 0  0.6875 0.375 0  0.71875 0.375 0  0.75 0.375 0  0.78125 0.375 0  0.8125 0.375 0  0.84375 0.375 0  0.875 0.375 0  0.90625 0.375 0  0.9375 0.375 0  0.96875 0.375 0  1 0.375 0  0 0.40625 0  0.03125 0.40625 0  0.0625 0.40625 0  0.09375 0.40625 0  0.125 0.40625 0  0.15625 0.40625 0  0.1875 0.40625 0  0.21875 0.40625 0  0.25 0.40625 0  0.28125 0.40625 0  0.3125 0.40625 0  0.34375 0.40625 0  0.375 0.40625 0  0.40625 0.40625 0  0.4375 0.40625 0  0.46875 0.40625 0  0.5 0.40625 0  0.53125 0.40625 0  0.5625 0.40625 0  0.59375 0.40625 0  0.625 0.40625 0  0.65625 0.40625 0  0.6875 0.40625 0  0.71875 0.40625 0  0.75 0.40625 0  0.78125 0.40625 0  0.8125 0.40625 0  0.84375 0.40625 0  0.875 0.40625 0  0.90625 0.40625 0  0.9375 0.40625 0  0.96875 0.40625 0  1 0.40625 0  0 0.4375 0  0.03125 0.4375 0  0.0625 0.4375 0  0.09375 0.4375 0  0.125 0.4375 0  0.15625 0.4375 0  0.1875 0.4375 0  0.21875 0.4375 0  0.25 0.4375 0  0.28125 0.4375 0  0.3125 0.4375 0  0.34375 0.4375 0  0.375 0.4375 0  0.40625 0.4375 0  0.4375 0.4375 0  0.46875 0.4375 0  0.5 0.4375 0  0.53125 0.4375 0  0.5625 0.4375 0  0.59375 0.4375 0  0.625 0.4375 0  0.65625 0.4375 0  0.6875 0.4375 0  0.71875 0.4375 0  0.75 0.4375 0  0.78125 0.4375 0  0.8125 0.4375 0  0.84375 0.4375 0  0.875 0.4375 0  0.90625 0.4375 0  0.9375 0.4375 0  0.96875 0.4375 0  1 0.4375 0  0 0.46875 0  0.03125 0.46875 0  0.0625 0.46875 0  0.09375 0.46875 0  0.125 0.46875 0  0.15625 0.46875 0  0.1875 0.46875 0  0.21875 0.46875 0  0.25 0.46875 0  0.28125 0.46875 0  0.3125 0.46875 0  0.34375 0.46875 0  0.375 0.46875 0  0.40625 0.46875 0  0.4375 0.46875 0  0.46875 0.46875 0  0.5 0.46875 0  0.53125 0.46875 0  0.5625 0.46875 0  0.59375 0.46875 0  0.625 0.46875 0  0.65625 0.46875 0  0.6875 0.46875 0  0.71875 0.46875 0  0.75 0.46875 0  0.78125 0.46875 0  0.8125 0.46875 0  0.84375 0.46875 0  0.875 0.46875 0  0.90625 0.46875 0  0.9375 0.46875 0  0.96875 0.46875 0  1 0.46875 0  0 0.5 0  0.03125 0.5 0  0.0625 0.5 0  0.09375 0.5 0  0.125 0.5 0  0.15625 0.5 0  0.1875 0.5 0  0.21875 0.5 0  0.25 0.5 0  0.28125 0.5 0  0.3125 0.5 0  0.34375 0.5 0  0.375 0.5 0  0.40625 0.5 0  0.4375 0.5 0  0.46875 0.5 0  0.5 0.5 0  0.53125 0.5 0  0.5625 0.5 0  0.59375 0.5 0  0.625 0.5 0  0.65625 0.5 0  0.6875 0.5 0  0.71875 0.5 0  0.75 0.5 0  0.78125 0.5 0  0.8125 0.5 0  0.84375 0.5 0  0.875 0.5 0  0.90625 0.5 0  0.9375 0.5 0  0.96875 0.5 0  1 0.5 0  0 0.53125 0  0.03125 0.53125 0  0.0625 0.53125 0  0.09375 0.53125 0  0.125 0.53125 0  0.15625 0.53125 0  0.1875 0.53125 0  0.21875 0.53125 0  0.25 0.53125 0  0.28125 0.53125 0  0.3125 0.53125 0  0.34375 0.53125 0  0.375 0.53125 0  0.40625 0.53125 0  0.4375 0.53125 0  0.46875 0.53125 0  0.5 0.53125 0  0.53125 0.53125 0  0.5625 0.53125 0  0.59375 0.53125 0  0.625 0.53125 0  0.65625 0.53125 0  0.6875 0.53125 0  0.71875 0.53125 0  0.75 0.53125 0  0.78125 0.531
[...]
<PointData  Scalars="eigenfunction"> 
<DataArray  type="Float64"  Name="eigenfunction"  format="ascii">0.0000000000000000e+00  0.0000000000000000e+00  0.0000000000000000e+00  0.0000000000000000e+00  0.0000000000000000e+00  0.0000000000000000e+00  0.0000000000000000e+00  0.0000000000000000e+00  0.0000000000000000e+00  0.0000000000000000e+00  0.0000000000000000e+00  0.0000000000000000e+00  0.0000000000000000e+00  0.0000000000000000e+00  0.0000000000000000e+00  0.0000000000000000e+00  0.0000000000000000e+00  0.0000000000000000e+00  0.0000000000000000e+00  0.0000000000000000e+00  0.0000000000000000e+00  0.0000000000000000e+00  0.0000000000000000e+00  0.0000000000000000e+00  0.0000000000000000e+00  0.0000000000000000e+00  0.0000000000000000e+00  0.0000000000000000e+00  0.0000000000000000e+00  0.0000000000000000e+00  0.0000000000000000e+00  0.0000000000000000e+00  0.0000000000000000e+00  0.0000000000000000e+00  -2.2167686499428079e-10  1.3715701098624383e-01  4.4664651775466413e-01  8.5070922862924392e-01  1.2028823612385018e+00  1.3703218640566677e+00  1.3070470720343170e+00  1.0765214096420719e+00  8.1168523181611418e-01  6.3677492947752734e-01  5.9690980229689905e-01  6.3613087375651334e-01  6.3574116918947499e-01  4.8946646772651226e-01  1.7075884952453688e-01  -2.4731656449374020e-01  -6.3101293678550230e-01  -8.6052348676798085e-01  -8.9648346316850547e-01  -7.9964290930896997e-01  -6.9265555809907098e-01  -6.8677136902743630e-01  -8.1643094927850612e-01  -1.0196807507273762e+00  -1.1751944254293814e+00  -1.1735882654175351e+00  -9.8105987353135182e-01  -6.5848635100104003e-01  -3.2569862875183697e-01  -9.2880697094264997e-02  3.4074870906426866e-10  0.0000000000000000e+00  0.0000000000000000e+00  -1.3715701164271837e-01  -5.8254931526432439e-10  4.8878119701186828e-01  1.1874484364061990e+00  1.8153423415391030e+00  2.1116049638465770e+00  1.9804328540930232e+00  1.5398026331421308e+00  1.0474330666047607e+00  7.4899032614629557e-01  7.3778802407522903e-01  9.0715550479276474e-01  1.0215561581005619e+00  8.6299246658411966e-01  3.6585476376773546e-01  -3.3887473425184472e-01  -9.9532947113325054e-01  -1.3676218934887989e+00  -1.3727180380395756e+00  -1.1239161453735815e+00  -8.6038280224822672e-01  -8.0488067594558055e-01  -1.0332484330122842e+00  -1.4314286697353500e+00  -1.7639332287374292e+00  -1.8123905306800221e+00  -1.5025174692010410e+00  -9.4577411469967065e-01  -3.7288461173085835e-01  8.3031966086041840e-10  9.2880698189011540e-02  0.0000000000000000e+00  0.0000000000000000e+00  -4.4664651848331588e-01  -4.8878119834094169e-01  -8.3981249253948237e-10  8.3127078989747727e-01  1.6101376869662443e+00  1.9613718730886383e+00  1.7414262568948855e+00  1.1143976857083657e+00  4.5020846953748306e-01  1.0664477429479685e-01  2.2329193014035192e-01  6.4674910879503666e-01  1.0286294982525794e+00  1.0367557171359569e+00  5.5469599669034442e-01  -2.4701767591292006e-01  -1.0085100383152661e+00  -1.3885267212306815e+00  -1.2603418245217901e+00  -7.8137760326134020e-01  -2.9709535482813737e-01  -1.3681562746772555e-01  -4.2159700135336914e-01  -9.9598272514684438e-01  -1.5218869544201930e+00  -1.6778053438143210e+00  -1.3457443044761963e+00  -6.7696940588278087e-01  3.2510531037312729e-10  3.7288461311718579e-01  3.2569862989704212e-01  0.0000000000000000e+00  0.0000000000000000e+00  -8.5070922900769286e-01  -1.1874484372539105e+00  -8.3127079109786584e-01  -4.3448248065049485e-10  8.2113407634695357e-01  1.1617537478542159e+00  8.3653406576149392e-01  4.7269908811966056e-02  -7.4018878466624904e-01  -1.0700709885906119e+00  -7.6106264394541545e-01  -7.5728068278728949e-03  7.3898991694855587e-01  1.0372384301730584e+00  7.1387006998352165e-01  -3.7622005781848024e-02  -7.7354113880303621e-01  -1.0616733008708226e+00  -7.3385852767490178e-01  1.7950082497169530e-02  7.5671560216072964e-01  1.0571868093920818e+00  7.5319044264842205e-01  3.1074592884041598e-02  -6.8352536100310435e-01  -9.7700821024497486e-01  -6.8861678640961888e-01  -9.3328799797253066e-10  6.7696940538708195e-01  9.4577411534788003e-01  6.5848635180559145e-01  0.0000000000000000e+00  0.0000000000000000e+00  -1.2028823610017976e+00  -1.8153423414475356e+00  -1.6101376870130963e+00  -8.2113407620733903e-01  3.9072842783926325e-10  3.0907776324642555e-01  -1.1352194386774069e-01  -1.0377134140397200e+00  -1.9213390719202750e+00  -2.2283229849702342e+00  -1.7409836687651270e+00  -6.8514542794329936e-01  4.0294117860853085e-01  9.8811621646415693e-01  8.4344253466187957e-01  1.7438821784770181e-01  -5.1025300666260942e-01  -7.0272034032780950e-01  -1.9644803996143803e-01  7.9326429687713762e-01  1.7568283589127918e+00  2.1891697046378811e+00  1.8833132814721767e+00  1.0470380197449058e+00  1.7612100864211960e-01  -2.3907740129601987e-01  -1.5883331083291651e-09  6.8861678394624448e-01  1.3457443034820422e+00  1.5025174693637235e+00  9.8105987406842865e-01  0.0000000000000000e+00  0.0000000000000000e+00  -1.3703218635246075e+00  -2.1116049631175433e+00  -1.9613718722263158e+00  -1.1617537467732364e+00  -3.0907776187790742e-01  7.7171057881672849e-10  -4.8096215511534807e-01  -1.5045781772614506e+00  -2.4751479746399192e+00  -2.7969901225925016e+00  -2.2218909610967708e+00  -9.9370315317579094e-01  2.9265561480187569e-01  1.0339136928418506e+00  9.6225000358504542e-01  2.9048534787914237e-01  -4.2376452578245788e-01  -6.1291807903512330e-01  -3.5834891367796072e-02  1.0807731227140434e+00  2.1767799211304668e+00  2.6876784180596704e+00  2.3736848204495340e+00  1.4559733032257340e+00  4.8179855559024187e-01  -1.1302429007758031e-09  2.3907739877034004e-01  9.7700820854253256e-01  1.6778053434267393e+00  1.8123905312834747e+00  1.1735882661672787e+00  0.0000000000000000e+00  0.0000000000000000e+00  -1.3070470719833067e+00  -1.9804328537725162e+00  -1.7414262562152250e+00  -8.3653406475177627e-01  1.1352194495506861e-01  4.8096215621003435e-01  3.8464043213874023e-10  -1.0769332322072349e+00  -2.1260515112325380e+00  -2.5157616319115377e+00  -1.9746326595098611e+00  -7.4966540273488014e-01  5.3638817817921591e-01  1.2443254368957348e+00  1.0843745889871295e+00  2.7593985997704989e-01  -5.9009074222362490e-01  -9.0371578807613273e-01  -3.9536840462767980e-01  7.0757195969444697e-01  1.8172244901297891e+00  2.3323061498008064e+00  1.9906365937795345e+00  1.0199899309538232e+00  -1.9447813134048633e-10  -4.8179855669666577e-01  -1.7612100953394394e-01  6.8352536097118044e-01  1.5218869553691277e+00  1.7639332302130861e+00  1.1751944265215182e+00  0.0000000000000000e+00  0.0000000000000000e+00  -1.0765214101480507e+00  -1.5398026337770085e+00  -1.1143976861296530e+00  -4.7269908877288852e-02  1.0377134141083244e+00  1.5045781774713813e+00  1.0769332323658807e+00  -7.2515746693922797e-11  -1.1014513481187551e+00  -1.5864250276972263e+00  -1.1704571266662651e+00  -9.0597637870090952e-02  1.0332106954714819e+00  1.5589660642479102e+00  1.1947937115327045e+00  1.6554221658567222e-01  -9.2244320298559657e-01  -1.4379255994885116e+00  -1.0931994350295389e+00  -1.0875051219911298e-01  9.2110925152687306e-01  1.3811154320045895e+00  9.9799556844419313e-01  5.2424514018056628e-10  -1.0199899304715756e+00  -1.4559733030546806e+00  -1.0470380191076700e+00  -3.1074591330309126e-02  9.9598272725226167e-01  1.4314286718679026e+00  1.0196807520093623e+00  0.0000000000000000e+00  0.0000000000000000e+00  -8.1168523273695925e-01  -1.0474330679159061e+00  -4.5020847087018950e-01  7.4018878354502549e-01  1.9213390708951521e+00  2.4751479738888680e+00  2.1260515107212878e+00  1.1014513475808987e+00  -4.0971399056955621e-10  -5.5628741710358720e-01  -2.8352866327439591e-01  6.0001214819907300e-01  1.5035014770095880e+00  1.8112588403922323e+00  1.2454022628009689e+00  3.1206116463189489e-02  -1.2316836900911083e+00  -1.9167416736468919e+00  -1.7331089335357732e+00  -8.9074637562165759e-01  2.8299614278691085e-02  4.1632766055780740e-01  8.9636183754788638e-10  -9.9799556706875681e-01  -1.9906365931373240e+00  -2.3736848200556344e+00  -1.8833132805530066e+00  -7.5319044083862807e-01  4.2159700352681800e-01  1.0332484349506532e+00  8.1643095042035052e-01  0.0000000000000000e+00  0.0000000000000000e+00  -6.3677493044644917e-01  -7.4899032738500726e-01  -1.0664477537088095e-01  1.0700709875551588e+00  2.2283229839943011e+00  2.7969901219211031e+00  2.5157616315265878e+00  1.5864250272484965e+00  5.5628741615654453e-01  -7.1632694905169740e-10  1.8482556208578882e-01  9.1544851386633885e-01  1.6503632756999749e+00  1.8229555775819275e+00  1.1796662629645247e+00  -6.3588780001698889e-02  -1.3398953801454445e+00  -2.0567135394661791e+00  -1.9380431280954169e+00  -1.1823999469294140e+00  -3.4304395071883298e-01  9.0648198528595190e-10  -4.1632765886756906e-01  -1.3811154310737515e+00  -2.3323061498529762e+00  -2.6876784184930003e+00  -2.1891697046029464e+00  -1.0571868085805778e+00  1.3681562862641972e-01  8.0488067687657250e-01  6.8677136949438244e-01  0.0000000000000000e+00  0.0000000000000000e+00  -5.9690980306826269e-01  -7.3778802481040406e-01  -2.2329193039432366e-01  7.6106264409766733e-01  1.7409836689519587e+00  2.2218909613502111e+00  1.9746326599614219e+00  1.1704571270417010e+00  2.8352866288711981e-01  -1.8482556325259697e-01  -6.0017066912789665e-10  6.6690604474219817e-01  1.3388777913369803e+00  1.5154555171671740e+00  9.7309096649990212e-01  -9.4125014041919572e-02  -1.1787957888370795e+00  -1.7512517407906365e+00  -1.5678182575482709e+00  -8.1458701603047323e-01  -4.9457375143620468e-11  3.4304395176820829e-01  -2.8299613173125619e-02  -9.2110925141594246e-01  -1.8172244911508033e+00  -2.1767799227442244e+00  -1.7568283602190822e+00  -7.5671560273026606e-01  2.9709535478738053e-01  8.6038280214646490e-01  6.9265555792046896e-01  0.0000000000000000e+00  0.0000000000000000e+00  -6.3613087427483728e-01  -9.0715550509380449e-01  -6.4674910831985777e-01  7.5728079778569803e-03  6.8514542916145649e-01  9.9370315415653787e-01  7.4966540379858904e-01  9.0597638785162221e-02  -6.0001214795073377e-01  -9.1544851422859408e-01  -6.6690604531803255e-01  -4.6893955889201989e-11  6.8551122006727849e-01  9.6938134162770007e-01  6.6213588489514141e-01  -7.5402918962435755e-02  -8.1857753883659734e-01  -1.1246286405195440e+00  -7.9519208909964367e-01  -1.3599856863300075e-09  8.1458701468804051e-01  1.1823999470087680e+00  8.9074637609949969e-01  1.0875051187725832e-01  -7.0757196116125165e-01  -1.0807731248037036e+00  -7.9326429889975036e-01  -1.7950083928220721e-02  7.8137760247164922e-01  1.1239161448266186e+00  7.9964290890762180e-01  0.0000000000000000e+00  0.0000000000000000e+00  -6.3574116957648585e-01  -1.0215561582755508e+00  -1.0286294976122612e+00  -7.3898991550269622e-01  -4.0294117700586718e-01  -2.9265561344557767e-01  -5.3638817698725683e-01  -1.0332106944922517e+00  -1.5035014764821635e+00  -1.6503632756076156e+00  -1.3388777913621213e+00  -6.8551121958026162e-01  5.3108888056261439e-10  3.9111960975644006e-01  3.3763082119464438e-01  -4.0205664968975291e-02  -4.1679351714824869e-01  -4.5236976762039199e-01  -1.4666946126565202e-09  7.9519208603253910e-01  1.5678182556215681e+00  1.9380431277167260e+00  1.7331089338337042e+00  1.0931994348542184e+00  3.9536840355082636e-01  3.5834889758064717e-02  1.9644803838521452e-01  7.3385852637439131e-01  1.2603418237111228e+00  1.3727180376134303e+00  8.9648346296902803e-01  0.0000000000000000e+00  0.0000000000000000e+00  -4.8946646813588240e-01  -8.6299246686954134e-01  -1.0367557168079631e+00  -1.0372384292510104e+00  -9.8811621543972994e-01  -1.0339136919546505e+00  -1.2443254362231955e+00  -1.5589660638152329e+00  -1.8112588402794114e+00  -1.8229555776114956e+00  -1.5154555171494291e+00  -9.6938134130077891e-01  -3.9111960871498685e-01  5.5833442017918305e-10  1.0000330882531605e-01  -1.3749147188664866e-02  -1.2340798989607293e-01  -3.1487753491591914e-10  4.5236976598979994e-01  1.1246286385683482e+00  1.7512517395277714e+00  2.0567135395380665e+00  1.9167416744334023e+00  1.4379256000106366e+00  9.0371578788314588e-01  6.1291807842775659e-01  7.0272033975998005e-01  1.0616733004217351e+00  1.3885267209020287e+00  1.3676218933156459e+00  8.6052348673758805e-01  0.0000000000000000e+00  0.0000000000000000e+00  -1.7075885015350237e-01  -3.6585476443382836e-01  -5.5469599706538852e-01  -7.1387007011468495e-01  -8.4344253474582309e-01  -9.6225000374821779e-01  -1.0843745892099133e+00  -1.1947937118875136e+00  -1.2454022632430681e+00  -1.1796662633345902e+00  -9.7309096691638253e-01  -6.6213588498730291e-01  -3.3763082082708507e-01  -1.0000330821067359e-01  1.0966463880255603e-10  -2.3575665668979385e-03  3.1221723762866860e-10  1.2340799043605981e-01  4.1679351747472027e-01  8.1857753893382668e-01  1.1787957892187200e+00  1.3398953812110588e+00  1.2316836915173999e+00  9.2244320416570225e-01  5.9009074289464980e-01  4.2376452623367616e-01  5.1025300721046984e-01  7.7354113942064262e-01  1.0085100387084318e+00  9.9532947122705451e-01  6.3101293682952386e-01  0.0000000000000000e+00  0.0000000000000000e+00  2.4731656370634814e-01  3.3887473318484301e-01  2.4701767483910222e-01  3.7622004662494227e-02  -1.7438821906724769e-01  -2.9048534907323065e-01  -2.7593986102351775e-01  -1.6554221740284311e-01  -3.1206116920031158e-02  6.3588779600858403e-02  9.4125013396253426e-02  7.5402918267281335e-02  4.0205664687471075e-02  1.3749147175748143e-02  2.3575663311246899e-03  -2.4281588596025967e-10  2.3575669736747933e-03  1.3749148648775300e-02  4.0205666839501455e-02  7.5402920655019648e-02  9.4125015628929457e-02  6.3588781641589029e-02  -3.1206114917573104e-02  -1.6554221533260316e-01  -2.7593985898574513e-01  -2.9048534687347066e-01  -1.7438821663675211e-01  3.7622007095896602e-02  2.4701767698649660e-01  3.3887473470214324e-01  2.4731656459268067e-01  0.0000000000000000e+00  0.0000000000000000e+00  6.3101293623799515e-01  9.9532947035936725e-01  1.0085100375336475e+00  7.7354113782492218e-01  5.1025300534208218e-01  4.2376452432204748e-01  5.9009074105772819e-01  9.2244320242644717e-01  1.2316836902713881e+00  1.3398953804169644e+00  1.1787957885111933e+00  8.1857753801154964e-01  4.1679351644995755e-01  1.2340798945359568e-01  -5.0361637226678934e-10  -2.3575671800974175e-03  -1.0902196717569076e-10  -1.0000330753102880e-01  -3.3763081919672955e-01  -6.6213588302410020e-01  -9.7309096509198290e-01  -1.1796662618849683e+00  -1.2454022620411929e+00  -1.1947937108525220e+00  -1.0843745882657880e+00  -9.6225000276760586e-01  -8.4344253357655552e-01  -7.1387006865368752e-01  -5.5469599542629511e-01  -3.6585476302242109e-01  -1.7075884925883153e-01  0.0000000000000000e+00  0.0000000000000000e+00  8.6052348675121981e-01  1.3676218937063493e+00  1.3885267217358757e+00  1.0616733013008812e+00  7.0272034012332707e-01  6.1291807835451018e-01  9.0371578760952731e-01  1.4379255997000437e+00  1.9167416746942596e+00  2.0567135406613097e+00  1.7512517411761190e+00  1.1246286399170056e+00  4.5236976681315244e-01  -5.0861997941936951e-11  -1.2340799020398344e-01  -1.3749148098187520e-02  1.0000330779099641e-01  -1.3560325600161535e-10  -3.9111960881615726e-01  -9.6938134101442575e-01  -1.5154555170575139e+00  -1.8229555779081101e+00  -1.8112588408968451e+00  -1.5589660646814003e+00  -1.2443254372175363e+00  -1.0339136929452006e+00  -9.8811621629574786e-01  -1.0372384297113613e+00  -1.0367557165819956e+00  -8.6299246620060632e-01  -4.8946646754544781e-01  0.0000000000000000e+00  0.0000000000000000e+00  8.9648346347935071e-01  1.3727180389291860e+00  1.2603418260352897e+00  7.3385852922811279e-01  1.9644804095421542e-01  3.5834891687815833e-02  3.9536840479762414e-01  1.0931994359019317e+00  1.7331089352322113e+00  1.9380431299722534e+00  1.5678182586009026e+00  7.9519208874659386e-01  4.9424215017414696e-10  -4.5236976643735161e-01  -4.1679351691540656e-01  -4.0205665539055607e-02  3.3763082009756706e-01  3.9111960840307514e-01  -7.1348000108120302e-10  -6.8551122074577509e-01  -1.3388777926404873e+00  -1.6503632773258476e+00  -1.5035014786454790e+00  -1.0332106969199490e+00  -5.3638817948286299e-01  -2.9265561593587386e-01  -4.0294117950839448e-01  -7.3898991765282496e-01  -1.0286294989012348e+00  -1.0215561587079030e+00  -6.3574116954145388e-01  0.0000000000000000e+00  0.0000000000000000e+00  7.9964290953658734e-01  1.1239161462283553e+00  7.8137760472739348e-01  -1.7950081020507810e-02  -7.9326429590473846e-01  -1.0807731223588299e+00  -7.0757195954957464e-01  1.0875051298533782e-01  8.9074637719654937e-01  1.1823999486934365e+00  8.1458701694838143e-01  8.4051928449867523e-10  -7.9519208735174585e-01  -1.1246286392915070e+00  -8.1857753828533086e-01  -7.5402918991352805e-02  6.6213588433742421e-01  9.6938134076212590e-01  6.8551121894066858e-01  -1.2173239064951561e-09  -6.6690604674237952e-01  -9.1544851613529243e-01  -6.0001215007176567e-01  9.0597636512380966e-02  7.4966540155778250e-01  9.9370315209194715e-01  6.8514542689799729e-01  7.5728056019571961e-03  -6.4674911026528115e-01  -9.0715550628309505e-01  -6.3613087469397922e-01  0.0000000000000000e+00  0.0000000000000000e+00  6.9265555778489440e-01  8.6038280220343055e-01  2.9709535529592024e-01  -7.5671560154733131e-01  -1.7568283587618638e+00  -2.1767799214341190e+00  -1.8172244905825838e+00  -9.2110925161428558e-01  -2.8299613669357470e-02  3.4304395157904705e-01  2.7002589483582498e-10  -8.1458701558422097e-01  -1.5678182571179768e+00  -1.7512517403434624e+00  -1.1787957886072724e+00  -9.4125013941125366e-02  9.7309096674269324e-01  1.5154555173151003e+00  1.3388777913915317e+00  6.6690604463378944e-01  -9.8680789880047766e-10  -1.8482556387475108e-01  2.8352866214067857e-01  1.1704571263867403e+00  1.9746326596491137e+00  2.2218909613277664e+00  1.7409836687656746e+00  7.6106264327590423e-01  -2.2329193157541727e-01  -7.3778802587383718e-01  -5.9690980356862833e-01  0.0000000000000000e+00  0.0000000000000000e+00  6.8677136826068552e-01  8.0488067489877424e-01  1.3681562667574196e-01  -1.0571868099658310e+00  -2.1891697052756238e+00  -2.6876784189550125e+00  -2.3323061508816547e+00  -1.3811154328491975e+00  -4.1632766096763951e-01  -1.0113325001213803e-09  -3.4304395218946454e-01  -1.1823999480662459e+00  -1.9380431289255051e+00  -2.0567135400781544e+00  -1.3398953806464096e+00  -6.3588780228683695e-02  1.1796662633236581e+00  1.8229555784633580e+00  1.6503632767143703e+00  9.1544851481527589e-01  1.8482556303186751e-01  1.2471466236567622e-10  5.5628741714938212e-01  1.5864250286666743e+00  2.5157616335259760e+00  2.7969901243942532e+00  2.2283229863350646e+00  1.0700709890272493e+00  -1.0664477507405726e-01  -7.4899032775112429e-01  -6.3677493078404579e-01  0.0000000000000000e+00  0.0000000000000000e+00  8.1643094855663534e-01  1.0332484319104067e+00  4.2159700023917607e-01  -7.5319044360396314e-01  -1.8833132822524969e+00  -2.3736848212418740e+00  -1.9906365947059139e+00  -9.9799556941443035e-01  -1.6810883931222721e-09  4.1632765821000212e-01  2.8299612367042211e-02  -8.9074637713967830e-01  -1.7331089347723376e+00  -1.9167416747915687e+00  -1.2316836911741997e+00  3.1206115736795010e-02  1.2454022628210319e+00  1.8112588412114869e+00  1.5035014782748641e+00  6.0001214955929572e-01  -2.8352866194573917e-01  -5.5628741569377382e-01  1.1582484511518671e-09  1.1014513497590139e+00  2.1260515136654070e+00  2.4751479774872123e+00  1.9213390745301215e+00  7.4018878618154671e-01  -4.5020846959003469e-01  -1.0474330677464074e+00  -8.1168523288023675e-01  0.0000000000000000e+00  0.0000000000000000e+00  1.0196807504729326e+00  1.4314286693946678e+00  9.9598272487707173e-01  -3.1074593131788782e-02  -1.0470380199799165e+00  -1.4559733034047453e+00  -1.0199899311729876e+00  -7.4874685149623671e-10  9.9799556680777046e-01  1.3811154306144375e+00  9.2110925070625660e-01  -1.0875051270336183e-01  -1.0931994354265380e+00  -1.4379256002293883e+00  -9.2244320396889135e-01  1.6554221573388561e-01  1.1947937110311468e+00  1.5589660645856109e+00  1.0332106965177643e+00  -9.0597636780390331e-02  -1.170457125885