<?xml version="1.0"?>
<VTKFile type="UnstructuredGrid"  version="0.1"  >
<UnstructuredGrid>
<Piece  NumberOfPoints="1089" NumberOfCells="2048">
<Points>
<DataArray  type="Float64"  NumberOfComponents="3"  format="ascii">0 0 0  0.03125 0 0  0.0625 0 0  0.09375 0 0  0.125 0 0  0.15625 0 0  0.1875 0 0  0.21875 0 0  0.25 0 0  0.28125 0 0  0.3125 0 0  0.34375 0 0  0.375 0 0  0.40625 0 0  0.4375 0 0  0.46875 0 0  0.5 0 0  0.53125 0 0  0.5625 0 0  0.59375 0 0  0.625 0 0  0.65625 0 0  0.6875 0 0  0.71875 0 0  0.75 0 0  0.78125 0 0  0.8125 0 0  0.84375 0 0  0.875 0 0  0.90625 0 0  0.9375 0 0  0.96875 0 0  1 0 0  0 0.03125 0  0.03125 0.03125 0  0.0625 0.03125 0  0.09375 0.03125 0  0.125 0.03125 0  0.15625 0.03125 0  0.1875 0.03125 0  0.21875 0.03125 0  0.25 0.03125 0  0.28125 0.03125 0  0.3125 0.03125 0  0.34375 0.03125 0  0.375 0.03125 0  0.40625 0.03125 0  0.4375 0.03125 0  0.46875 0.03125 0  0.5 0.03125 0  0.53125 0.03125 0  0.5625 0.03125 0  0.59375 0.03125 0  0.625 0.03125 0  0.65625 0.03125 0  0.6875 0.03125 0  0.71875 0.03125 0  0.75 0.03125 0  0.78125 0.03125 0  0.8125 0.03125 0  0.84375 0.03125 0  0.875 0.03125 0  0.90625 0.03125 0  0.9375 0.03125 0  0.96875 0.03125 0  1 0.03125 0  0 0.0625 0  0.03125 0.0625 0  0.0625 0.0625 0  0.09375 0.0625 0  0.125 0.0625 0  0.15625 0.0625 0  0.1875 0.0625 0  0.21875 0.0625 0  0.25 0.0625 0  0.28125 0.0625 0  0.3125 0.0625 0  0.34375 0.0625 0  0.375 0.0625 0  0.40625 0.0625 0  0.4375 0.0625 0  0.46875 0.0625 0  0.5 0.0625 0  0.53125 0.0625 0  0.5625 0.0625 0  0.59375 0.0625 0  0.625 0.0625 0  0.65625 0.0625 0  0.6875 0.0625 0  0.71875 0.0625 0  0.75 0.0625 0  0.78125 0.0625 0  0.8125 0.0625 0  0.84375 0.0625 0  0.875 0.0625 0  0.90625 0.0625 0  0.9375 0.0625 0  0.96875 0.0625 0  1 0.0625 0  0 0.09375 0  0.03125 0.09375 0  0.0625 0.09375 0  0.09375 0.09375 0  0.125 0.09375 0  0.15625 0.09375 0  0.1875 0.09375 0  0.21875 0.09375 0  0.25 0.09375 0  0.28125 0.09375 0  0.3125 0.09375 0  0.34375 0.09375 0  0.375 0.09375 0  0.40625 0.09375 0  0.4375 0.09375 0  0.46875 0.09375 0  0.5 0.09375 0  0.53125 0.09375 0  0.5625 0.09375 0  0.59375 0.09375 0  0.625 0.09375 0  0.65625 0.09375 0  0.6875 0.09375 0  0.71875 0.09375 0  0.75 0.09375 0  0.78125 0.09375 0  0.8125 0.09375 0  0.84375 0.09375 0  0.875 0.09375 0  0.90625 0.09375 0  0.9375 0.09375 0  0.96875 0.09375 0  1 0.09375 0  0 0.125 0  0.03125 0.125 0  0.0625 0.125 0  0.09375 0.125 0  0.125 0.125 0  0.15625 0.125 0  0.1875 0.125 0  0.21875 0.125 0  0.25 0.125 0  0.28125 0.125 0  0.3125 0.125 0  0.34375 0.125 0  0.375 0.125 0  0.40625 0.125 0  0.4375 0.125 0  0.46875 0.125 0  0.5 0.125 0  0.53125 0.125 0  0.5625 0.125 0  0.59375 0.125 0  0.625 0.125 0  0.65625 0.125 0  0.6875 0.125 0  0.71875 0.125 0  0.75 0.125 0  0.78125 0.125 0  0.8125 0.125 0  0.84375 0.125 0  0.875 0.125 0  0.90625 0.125 0  0.9375 0.125 0  0.96875 0.125 0  1 0.125 0  0 0.15625 0  0.03125 0.15625 0  0.0625 0.15625 0  0.09375 0.15625 0  0.125 0.15625 0  0.15625 0.15625 0  0.1875 0.15625 0  0.21875 0.15625 0  0.25 0.15625 0  0.28125 0.15625 0  0.3125 0.15625 0  0.34375 0.15625 0  0.375 0.15625 0  0.40625 0.15625 0  0.4375 0.15625 0  0.46875 0.15625 0  0.5 0.15625 0  0.53125 0.15625 0  0.5625 0.15625 0  0.59375 0.15625 0  0.625 0.15625 0  0.65625 0.15625 0  0.6875 0.15625 0  0.71875 0.15625 0  0.75 0.15625 0  0.78125 0.15625 0  0.8125 0.15625 0  0.84375 0.15625 0  0.875 0.15625 0  0.90625 0.15625 0  0.9375 0.15625 0  0.96875 0.15625 0  1 0.15625 0  0 0.1875 0  0.03125 0.1875 0  0.0625 0.1875 0  0.09375 0.1875 0  0.125 0.1875 0  0.15625 0.1875 0  0.1875 0.1875 0  0.21875 0.1875 0  0.25 0.1875 0  0.28125 0.1875 0  0.3125 0.1875 0  0.34375 0.1875 0  0.375 0.1875 0  0.40625 0.1875 0  0.4375 0.1875 0  0.46875 0.1875 0  0.5 0.1875 0  0.53125 0.1875 0  0.5625 0.1875 0  0.59375 0.1875 0  0.625 0.1875 0  0.65625 0.1875 0  0.6875 0.1875 0  0.71875 0.1875 0  0.75 0.1875 0  0.78125 0.1875 0  0.8125 0.1875 0  0.84375 0.1875 0  0.875 0.1875 0  0.90625 0.1875 0  0.9375 0.1875 0  0.96875 0.1875 0  1 0.1875 0  0 0.21875 0  0.03125 0.21875 0  0.0625 0.21875 0  0.09375 0.21875 0  0.125 0.21875 0  0.15625 0.21875 0  0.1875 0.21875 0  0.21875 0.21875 0  0.25 0.21875 0  0.28125 0.21875 0  0.3125 0.21875 0  0.34375 0.21875 0  0.375 0.21875 0  0.40625 0.21875 0  0.4375 0.21875 0  0.46875 0.21875 0  0.5 0.21875 0  0.53125 0.21875 0  0.5625 0.21875 0  0.59375 0.21875 0  0.625 0.21875 0  0.65625 0.21875 0  0.6875 0.21875 0  0.71875 0.21875 0  0.75 0.21875 0  0.78125 0.21875 0  0.8125 0.21875 0  0.84375 0.21875 0  0.875 0.21875 0  0.90625 0.21875 0  0.9375 0.21875 0  0.96875 0.21875 0  1 0.21875 0  0 0.25 0  0.03125 0.25 0  0.0625 0.25 0  0.09375 0.25 0  0.125 0.25 0  0.15625 0.25 0  0.1875 0.25 0  0.21875 0.25 0  0.25 0.25 0  0.28125 0.25 0  0.3125 0.25 0  0.34375 0.25 0  0.375 0.25 0  0.40625 0.25 0  0.4375 0.25 0  0.46875 0.25 0  0.5 0.25 0  0.53125 0.25 0  0.5625 0.25 0  0.59375 0.25 0  0.625 0.25 0  0.65625 0.25 0  0.6875 0.25 0  0.71875 0.25 0  0.75 0.25 0  0.78125 0.25 0  0.8125 0.25 0  0.84375 0.25 0  0.875 0.25 0  0.90625 0.25 0  0.9375 0.25 0  0.96875 0.25 0  1 0.25 0  0 0.28125 0  0.03125 0.28125 0  0.0625 0.28125 0  0.09375 0.28125 0  0.125 0.28125 0  0.15625 0.28125 0  0.1875 0.28125 0  0.21875 0.28125 0  0.25 0.28125 0  0.28125 0.28125 0  0.3125 0.28125 0  0.34375 0.28125 0  0.375 0.28125 0  0.40625 0.28125 0  0.4375 0.28125 0  0.46875 0.28125 0  0.5 0.28125 0  0.53125 0.28125 0  0.5625 0.28125 0  0.59375 0.28125 0  0.625 0.28125 0  0.65625 0.28125 0  0.6875 0.28125 0  0.71875 0.28125 0  0.75 0.28125 0  0.78125 0.28125 0  0.8125 0.28125 0  0.84375 0.28125 0  0.875 0.28125 0  0.90625 0.28125 0  0.9375 0.28125 0  0.96875 0.28125 0  1 0.28125 0  0 0.3125 0  0.03125 0.3125 0  0.0625 0.3125 0  0.09375 0.3125 0  0.125 0.3125 0  0.15625 0.3125 0  0.1875 0.3125 0  0.21875 0.3125 0  0.25 0.3125 0  0.28125 0.3125 0  0.3125 0.3125 0  0.34375 0.3125 0  0.375 0.3125 0  0.40625 0.3125 0  0.4375 0.3125 0  0.46875 0.3125 0  0.5 0.3125 0  0.53125 0.3125 0  0.5625 0.3125 0  0.59375 0.3125 0  0.625 0.3125 0  0.65625 0.3125 0  0.6875 0.3125 0  0.71875 0.3125 0  0.75 0.3125 0  0.78125 0.3125 0  0.8125 0.3125 0  0.84375 0.3125 0  0.875 0.3125 0  0.90625 0.3125 0  0.9375 0.3125 0  0.96875 0.3125 0  1 0.3125 0  0 0.34375 0  0.03125 0.34375 0  0.0625 0.34375 0  0.09375 0.34375 0  0.125 0.34375 0  0.15625 0.34375 0  0.1875 0.34375 0  0.21875 0.34375 0  0.25 0.34375 0  0.28125 0.34375 0  0.3125 0.34375 0  0.34375 0.34375 0  0.375 0.34375 0  0.40625 0.34375 0  0.4375 0.34375 0  0.46875 0.34375 0  0.5 0.34375 0  0.53125 0.34375 0  0.5625 0.34375 0  0.59375 0.34375 0  0.625 0.34375 0  0.65625 0.34375 0  0.6875 0.34375 0  0.71875 0.34375 0  0.75 0.34375 0  0.78125 0.34375 0  0.8125 0.34375 0  0.84375 0.34375 0  0.875 0.34375 0  0.90625 0.34375 0  0.9375 0.34375 0  0.96875 0.34375 0  1 0.34375 0  0 0.375 0  0.03125 0.375 0  0.0625 0.375 0  0.09375 0.375 0  0.125 0.375 0  0.15625 0.375 0  0.1875 0.375 0  0.21875 0.375 0  0.25 0.375 0  0.28125 0.375 0  0.3125 0.375 0  0.34375 0.375 0  0.375 0.375 0  0.40625 0.375 0  0.4375 0.375 0  0.46875 0.375 0  0.5 0.375 0  0.53125 0.375 0  0.5625 0.375 0  0.59375 0.375 0  0.625 0.375 0  0.65625 0.375 0  0.6875 0.375 0  0.71875 0.375 0  0.75 0.375 0  0.78125 0.375 0  0.8125 0.375 0  0.84375 0.375 0  0.875 0.375 0  0.90625 0.375 0  0.9375 0.375 0  0.96875 0.375 0  1 0.375 0  0 0.40625 0  0.03125 0.40625 0  0.0625 0.40625 0  0.09375 0.40625 0  0.125 0.40625 0  0.15625 0.40625 0  0.1875 0.40625 0  0.21875 0.40625 0  0.25 0.40625 0  0.28125 0.40625 0  0.3125 0.40625 0  0.34375 0.40625 0  0.375 0.40625 0  0.40625 0.40625 0  0.4375 0.40625 0  0.46875 0.40625 0  0.5 0.40625 0  0.53125 0.40625 0  0.5625 0.40625 0  0.59375 0.40625 0  0.625 0.40625 0  0.65625 0.40625 0  0.6875 0.40625 0  0.71875 0.40625 0  0.75 0.40625 0  0.78125 0.40625 0  0.8125 0.40625 0  0.84375 0.40625 0  0.875 0.40625 0  0.90625 0.40625 0  0.9375 0.40625 0  0.96875 0.40625 0  1 0.40625 0  0 0.4375 0  0.03125 0.4375 0  0.0625 0.4375 0  0.09375 0.4375 0  0.125 0.4375 0  0.15625 0.4375 0  0.1875 0.4375 0  0.21875 0.4375 0  0.25 0.4375 0  0.28125 0.4375 0  0.3125 0.4375 0  0.34375 0.4375 0  0.375 0.4375 0  0.40625 0.4375 0  0.4375 0.4375 0  0.46875 0.4375 0  0.5 0.4375 0  0.53125 0.4375 0  0.5625 0.4375 0  0.59375 0.4375 0  0.625 0.4375 0  0.65625 0.4375 0  0.6875 0.4375 0  0.71875 0.4375 0  0.75 0.4375 0  0.78125 0.4375 0  0.8125 0.4375 0  0.84375 0.4375 0  0.875 0.4375 0  0.90625 0.4375 0  0.9375 0.4375 0  0.96875 0.4375 0  1 0.4375 0  0 0.46875 0  0.03125 0.46875 0  0.0625 0.46875 0  0.09375 0.46875 0  0.125 0.46875 0  0.15625 0.46875 0  0.1875 0.46875 0  0.21875 0.46875 0  0.25 0.46875 0  0.28125 0.46875 0  0.3125 0.46875 0  0.34375 0.46875 0  0.375 0.46875 0  0.40625 0.46875 0  0.4375 0.46875 0  0.46875 0.46875 0  0.5 0.46875 0  0.53125 0.46875 0  0.5625 0.46875 0  0.59375 0.46875 0  0.625 0.46875 0  0.65625 0.46875 0  0.6875 0.46875 0  0.71875 0.46875 0  0.75 0.46875 0  0.78125 0.46875 0  0.8125 0.46875 0  0.84375 0.46875 0  0.875 0.46875 0  0.90625 0.46875 0  0.9375 0.46875 0  0.96875 0.46875 0  1 0.46875 0  0 0.5 0  0.03125 0.5 0  0.0625 0.5 0  0.09375 0.5 0  0.125 0.5 0  0.15625 0.5 0  0.1875 0.5 0  0.21875 0.5 0  0.25 0.5 0  0.28125 0.5 0  0.3125 0.5 0  0.34375 0.5 0  0.375 0.5 0  0.40625 0.5 0  0.4375 0.5 0  0.46875 0.5 0  0.5 0.5 0  0.53125 0.5 0  0.5625 0.5 0  0.59375 0.5 0  0.625 0.5 0  0.65625 0.5 0  0.6875 0.5 0  0.71875 0.5 0  0.75 0.5 0  0.78125 0.5 0  0.8125 0.5 0  0.84375 0.5 0  0.875 0.5 0  0.90625 0.5 0  0.9375 0.5 0  0.96875 0.5 0  1 0.5 0  0 0.53125 0  0.03125 0.53125 0  0.0625 0.53125 0  0.09375 0.53125 0  0.125 0.53125 0  0.15625 0.53125 0  0.1875 0.53125 0  0.21875 0.53125 0  0.25 0.53125 0  0.28125 0.53125 0  0.3125 0.53125 0  0.34375 0.53125 0  0.375 0.53125 0  0.40625 0.53125 0  0.4375 0.53125 0  0.46875 0.53125 0  0.5 0.53125 0  0.53125 0.53125 0  0.5625 0.53125 0  0.59375 0.53125 0  0.625 0.53125 0  0.65625 0.53125 0  0.6875 0.53125 0  0.71875 0.53125 0  0.75 0.53125 0  0.78125 0.531
[...]
<PointData  Scalars="theta"> 
<DataArray  type="Float64"  Name="theta"  format="ascii">8.9906557198562751e-06  -9.9745210949582104e-05  -4.4681330850318457e-05  3.4751573820098737e-05  3.9713545717512185e-05  2.0182522140103385e-05  -1.7543028300537089e-05  -2.2126198556764026e-05  -9.8107091598294909e-05  1.7571360429575655e-16  5.1364416555673328e-05  5.0827485842677822e-05  2.2126198556797273e-05  2.4699059137273743e-06  -3.4618702728675773e-06  -3.2345272298546093e-05  -8.1375504492539974e-05  -1.0194964635125637e-04  -5.2587659997794809e-05  7.3019503543624522e-05  1.2682985191983730e-05  1.2194593556904055e-04  2.6338341669903537e-04  1.1434053753440426e-04  1.8622080602274349e-04  9.7496754781053904e-05  4.8355292894277320e-05  3.0158583672253441e-05  1.8271150734528729e-05  3.4618702728705826e-06  -5.6249267711650987e-05  -4.5853318762449219e-05  -4.0306372745428609e-05  1.3011432234849166e-05  8.4297903714139112e-06  -9.3090013399336807e-05  -3.9713545717368325e-05  3.2457877650333178e-05  3.4250600740311777e-05  1.8828369752894288e-05  -1.6157366349568860e-05  -1.1231651159059047e-05  -9.1631762987545707e-05  1.6431762838852318e-16  4.5653588787746333e-05  3.9147099224047554e-05  1.1231651159075924e-05  0.0000000000000000e+00  0.0000000000000000e+00  -1.6419034393550941e-05  -6.2675044731438502e-05  -9.0614622800817845e-05  -4.9177066328883758e-05  6.8200022375283041e-05  6.4381084245637507e-06  1.1231385608433324e-04  2.4571162721710591e-04  9.8611998217943073e-05  1.7392973823639803e-04  8.6656815153142121e-05  4.5128932212419080e-05  2.8277196477934644e-05  1.5757794414172501e-05  0.0000000000000000e+00  -5.2475206193385969e-05  -4.2969403080334784e-05  1.3785258408827134e-16  1.0021346133884942e-05  7.8830729538258847e-06  -8.6816471959961770e-05  -3.4250600740187703e-05  3.0366245460710846e-05  2.8263902616188691e-05  1.7585647342429927e-05  -1.4666380825476060e-05  0.0000000000000000e+00  -8.5726880754599500e-05  1.5279318406206419e-16  3.9373539020011430e-05  2.6657121509024636e-05  0.0000000000000000e+00  -4.8355292894235355e-05  -2.2934054558983462e-04  0.0000000000000000e+00  -4.2678418480703134e-05  -7.8149790221732586e-05  -4.5728024563834853e-05  6.3805115115176333e-05  0.0000000000000000e+00  1.0194964635152296e-04  2.2949400722866136e-04  8.1375504492664996e-05  1.6272145643969523e-04  7.4736413574083668e-05  4.2087593877501889e-05  2.6443267619220605e-05  1.3003473140367448e-05  -6.4625928087076075e-05  -4.9011703214311809e-05  -1.8693774778219980e-05  1.2896916584978134e-16  6.8240111494867660e-06  7.3301923148540620e-06  -8.0991494688164168e-05  -2.8263902616086305e-05  2.8456379526147407e-05  2.1768729690849945e-05  1.6452403004860146e-05  -1.3035734933054851e-05  -1.8900934684649799e-04  -8.0335142436425497e-05  1.4072458918237595e-16  3.2491397186108985e-05  1.3531628079984221e-05  3.4499566553821499e-05  -4.5128932212379907e-05  -2.1403849125909701e-04  -3.0260656608278717e-04  -2.1664322823726011e-05  -6.4489907112867730e-05  -4.2116129134748265e-05  5.9792132477364195e-05  2.3981503353091800e-04  9.0614622801054784e-05  2.1470508424312044e-04  6.2675044731534793e-05  1.5248719264574618e-04  6.1673158119382961e-05  3.9263714120280704e-05  2.4588664625762058e-05  1.0015216075389157e-05  -6.0313958477779861e-05  -1.0227945967967552e-05  -1.5426270443154986e-05  1.2085773117194963e-16  3.4639891954297939e-06  6.7512062692314810e-06  -7.5645840931257502e-05  -2.1768729690771086e-05  2.6692794359324021e-05  1.4823363262369990e-05  1.5417639451975527e-05  -1.1242555769874631e-05  -1.7639826978193494e-04  -7.5356369031841775e-05  1.2773866555996409e-16  2.5024726847782567e-05  0.0000000000000000e+00  3.2197687309417744e-05  -4.2087593877465358e-05  -1.9961396498069793e-04  -2.8241605810641656e-04  0.0000000000000000e+00  -4.9669834162390199e-05  -3.8229695076613016e-05  5.6086512869890035e-05  2.2381410066935243e-04  7.8149790221936931e-05  2.0120134283050295e-04  4.2678418480768702e-05  1.4303679327805870e-04  4.7500386854323724e-05  3.6672204706788430e-05  2.2646492703483745e-05  6.8198369011409465e-06  4.0105518210688145e-06  -9.5846657307037555e-06  -1.1881243576838787e-05  1.1336756884139277e-16  0.0000000000000000e+00  6.1282117415461382e-06  -7.0771114443980731e-05  -1.4823363262316292e-05  2.5027613990312852e-05  7.5246023278614473e-06  1.4462130680385277e-05  -9.2774577545676742e-06  -1.6451040109548667e-04  -7.0655401995471830e-05  1.1353635261191198e-16  1.7040526566058002e-05  1.5688334301248066e-04  3.0027814105928540e-05  -3.9263714120246633e-05  -1.8622080602254302e-04  -2.6338341669863080e-04  -2.3981503353029095e-04  -3.3822552139101755e-05  -3.3979219380733843e-05  5.2587659998211963e-05  2.0873077449941934e-04  6.4489907113036337e-05  1.8873188221500979e-04  2.1664322823759293e-05  1.3411370875544737e-04  3.2345272298580923e-05  3.4308995237103630e-05  2.0556697122827839e-05  7.6322124109621518e-06  2.0358272974009594e-06  -8.9906557198343911e-06  -8.0905037661526965e-06  1.0629534374663539e-16  5.7364814576492523e-05  5.4468614191215681e-06  -6.6320009653876550e-05  -7.5246023278341898e-06  2.3404438100248721e-05  0.0000000000000000e+00  1.3559937534966629e-05  -7.1454559131472449e-06  -1.5347252630373685e-04  -6.6073017711207679e-05  9.7918435953380122e-17  8.6500737786307405e-06  1.4641577639799220e-04  2.8013088896069018e-05  -3.6672204706756595e-05  -1.7392973823621076e-04  -2.4571162721672844e-04  -2.2381410066876721e-04  -1.7168927864445388e-05  -2.9305081061139871e-05  4.9177066329273861e-05  1.9472592046728871e-04  4.9669834162520066e-05  1.7695819449088494e-04  0.0000000000000000e+00  1.2541571066968562e-04  1.6419034393568620e-05  3.2151152531879384e-05  -1.1382889642678841e-05  7.0293708628325194e-06  0.0000000000000000e+00  -8.4297903713933927e-06  -4.1068833297033512e-06  9.9401516821607733e-17  5.3537320807065109e-05  4.6975980709744493e-06  -6.2209824618507240e-05  0.0000000000000000e+00  2.1762963922927821e-05  9.9745210949799161e-05  1.2680502376423240e-05  -4.8656807347078473e-06  -1.4334293195588223e-04  -6.1438975572445070e-05  8.0803170697631765e-17  0.0000000000000000e+00  1.3654849410777803e-04  2.6164150628212664e-05  -3.4308995237073842e-05  -1.6272145643952008e-04  -2.2949400722830883e-04  -2.0873077449887355e-04  0.0000000000000000e+00  -2.4182815465094034e-05  4.5728024564197593e-05  1.8187349253864118e-04  3.3822552139190192e-05  1.6548150019001946e-04  2.2934054559008146e-04  1.1661965884341039e-04  0.0000000000000000e+00  0.0000000000000000e+00  -1.0649359907801020e-05  6.3807075860824273e-06  8.0452222552321696e-06  -7.8830729538066960e-06  0.0000000000000000e+00  9.2429974828148634e-17  4.9929322608639336e-05  3.8765000186332223e-06  -5.8328980323230946e-05  -4.2798358948972141e-05  2.0043984136104350e-05  9.3090013399539390e-05  1.1791153223190040e-05  -2.4699059137244410e-06  -1.3410570782608182e-04  -5.6586127518007550e-05  6.2234235836662626e-17  1.8900934684692780e-04  1.2738673186705009e-04  2.4478095234891684e-05  -3.2151152531851479e-05  -1.5248719264558203e-04  -2.1470508424279065e-04  -1.9472592046677954e-04  -8.9927291901172648e-05  -1.8625494864315567e-05  4.2116129135082355e-05  1.7015330382109722e-04  1.7168927864490284e-05  1.5387542752026570e-04  2.1403849125932741e-04  1.0740828317748491e-04  1.0276235769722343e-06  -2.8436370368612332e-05  -9.9795751054905032e-06  5.6712841270984048e-06  7.5084291306854271e-06  -7.3301923148362193e-06  -4.8384889936277783e-05  8.5129257012833032e-17  4.6579299706007410e-05  2.9856627443892837e-06  -5.4546031034124132e-05  -3.9942767879284685e-05  1.8194345429801529e-05  8.6816471960150693e-05  1.0859811604199971e-05  0.0000000000000000e+00  -1.2567121356702252e-04  -5.1364416555436613e-05  4.2378250741503679e-17  1.7639826978233609e-04  1.1897886923397943e-04  2.2938560810308097e-05  -3.0158583672227268e-05  -1.4303679327790471e-04  -2.0120134283019387e-04  -1.8187349253816565e-04  -8.3927165307993244e-05  -1.2682985191883123e-05  3.8229695076916288e-05  1.5945161865419709e-04  0.0000000000000000e+00  1.4172135004566721e-04  1.9961396498091282e-04  4.6717391969710004e-06  7.9147102135286946e-07  -2.6539039553294130e-05  -9.3610905716069438e-06  4.8911494758943250e-06  7.0024195215354367e-06  -6.7512062692150469e-06  -4.5156554481299694e-05  7.7273614754260582e-17  4.3504942214196769e-05  2.0330797463854619e-06  -5.0720436032255335e-05  -3.7250936603903047e-05  1.6171451370698476e-05  8.0991494688340405e-05  9.8576791064944113e-06  -1.5688334301224493e-04  -1.1788273548814933e-04  -4.5653588787535937e-05  2.1511952350902013e-17  1.6451040109586077e-04  1.1131170025097901e-04  2.1516942661162879e-05  -2.8277196477910107e-05  -1.3411370875530298e-04  -1.8873188221471985e-04  -1.7015330382065229e-04  -7.8271128422593818e-05  -6.4381084245126814e-06  3.3979219381003389e-05  1.4956959872871321e-04  3.0260656608325202e-04  1.2864344633281262e-04  4.2376948865655241e-17  4.1523232331654483e-06  5.3895025698647016e-07  -2.4750515109919304e-05  -8.7771163333709819e-06  4.0362203721931313e-06  6.5325900797291997e-06  -6.1282117415312211e-06  -4.2113354620724226e-05  6.8682135779931972e-17  4.0701421339444219e-05  1.0320273693362967e-06  -4.6714207623887409e-05  -3.4751573819718744e-05  1.3946927031622861e-05  7.5645840931422124e-05  8.7616770228795033e-06  -1.4641577639777219e-04  -1.1052884011332377e-04  -3.9373539019829975e-05  0.0000000000000000e+00  1.5347252630408585e-04  1.0431082078095233e-04  2.0174648181304803e-05  -2.6443267619197657e-05  -1.2541571066955058e-04  -1.7695819449061308e-04  -1.5945161865378016e-04  -7.3019503543045314e-05  0.0000000000000000e+00  2.9305081061372338e-05  1.4023897727892361e-04  2.8241605810685040e-04  -6.0095281403036764e-06  3.9029743090500271e-17  3.5811349159175375e-06  2.7358071758362449e-07  -2.3089871861860894e-05  -8.2078729519551487e-06  3.1086786367799255e-06  6.1014217843854813e-06  -5.4468614191083103e-06  -3.9287746438696238e-05  5.9234308296803863e-17  3.8141531009732760e-05  0.0000000000000000e+00  -4.2403467505121692e-05  -3.2457877649978264e-05  1.1509129150920984e-05  7.0771114444134742e-05  7.5564318447113561e-06  -1.3654849410757287e-04  -1.0336044809248864e-04  -3.2491397185959250e-05  1.2082395299462293e-04  1.4334293195620817e-04  9.7846153829929072e-05  1.8866213324866024e-05  -2.4588664625740720e-05  -1.1661965884328484e-04  -1.6548150018976527e-04  -1.4956959872832208e-04  -6.8200022374742078e-05  8.9927291901885958e-05  2.4182815465285870e-05  1.3114372245940674e-04  -2.0897282567658623e-06  -5.5880488799198546e-06  3.5428117633852147e-17  2.9551846195736237e-06  0.0000000000000000e+00  -2.1565878993966732e-05  -7.6322124108365876e-06  2.1168471175572197e-06  5.7082374134242287e-06  -4.6975980709630143e-06  -3.6694650828360454e-05  4.8880681945753291e-17  3.5777708223812617e-05  -2.3188110307964117e-05  -3.7688941069838127e-05  -3.0366245460378806e-05  8.8642791077258807e-06  6.6320009654020857e-05  6.2356352638632483e-06  -1.2738673186685868e-04  -9.6111245792761810e-05  -2.5024726847667242e-05  1.1276234012794388e-04  1.3410570782638681e-04  9.1742203364962799e-05  1.7543028300557926e-05  -2.2646492703464094e-05  -1.0740828317736926e-04  -1.5387542752002932e-04  -1.4023897727855690e-04  -6.3805115114670214e-05  8.3927165308658958e-05  1.8625494864463313e-05  7.0264579914532297e-07  -1.9431648162591440e-06  -5.1466686016460906e-06  3.1489128514225133e-17  2.2760697998304327e-06  -8.0452222552017764e-06  -2.0176142819986860e-05  -7.0293708627168723e-06  1.0745491739336340e-06  5.3492214067728662e-06  -3.8765000186237863e-06  -3.4329994898407429e-05  3.7647679686387180e-17  3.3545782387179787e-05  -2.1640953773357310e-05  -3.2504498140012203e-05  -2.8456379525836251e-05  6.0361091868437496e-06  6.2209824618642616e-05  4.8026580176518895e-06  -1.1897886923380066e-04  -8.8519757363645605e-05  -1.7040526565979472e-05  1.0516303717630634e-04  1.2567121356730831e-04  8.5792226165338161e-05  1.6157366349588047e-05  -2.0556697122809997e-05  -9.7496754780948940e-05  -1.4172135004544950e-04  -1.3114372245906381e-04  -5.9792132476889904e-05  7.8271128423214686e-05  1.0608321000996740e-06  6.4714628491074051e-07  -1.7896810787753464e-06  -4.6717391969190621e-06  2.7157523935857089e-17  1.5498841656147617e-06  -7.5084291306570616e-06  -1.8907176990390436e-05  -6.3807075859774511e-06  0.0000000000000000e+00  5.0177032135195606e-06  -2.9856627443820165e-06  -3.2170831432675826e-05  2.5636095440664897e-17  3.1370157287428612e-05  -2.0182522140069738e-05  -2.6823003105347241e-05  -2.6692794359032147e-05  3.0640361728063467e-06  5.8328980323357879e-05  3.2703582354882038e-06  -1.1131170025081177e-04  -8.0351243141095694e-05  -8.6500737785908757e-06  9.8107091598747075e-05  1.1788273548841741e-04  7.9775174046330856e-05  1.4666380825493476e-05  -1.8271150734512872e-05  -8.6656815153048826e-05  -1.2864344633261500e-04  -1.2194593556872167e-04  -5.6086512869445133e-05  -6.7104660039570009e-07  9.4288606234431323e-07  5.8742827630111974e-07  -1.6245311079530264e-06  -4.1523232331192842e-06  2.2410632083205061e-17  7.8674871512498079e-07  -7.0024195215089838e-06  -1.7735404001626416e-05  -5.6712841270051008e-06  2.8436370368771646e-05  4.7046831236705400e-06  -2.0330797463805127e-06  -3.0177042972449878e-05  1.3013337123012921e-17  2.9170006063748442e-05  -1.8828369752862897e-05  -2.0658955418374933e-05  -2.5027613990039186e-05  0.0000000000000000e+00  5.4546031034242832e-05  1.6600918938662637e-06  -1.0431082078079559e-04  -7.1417585537484910e-05  0.0000000000000000e+00  9.1631762987968030e-05  1.1052884011357514e-04  7.3474014325549652e-05  1.3035734933070332e-05  -1.5757794414158820e-05  -7.4736413574003207e-05  -1.1434053753422860e-04  -1.1231385608403955e-04  0.0000000000000000e+00  -5.1683705015353680e-07  8.1318385154209894e-07  5.2211649166652159e-07  -1.4439115665803788e-06  -3.5811349158777235e-06  1.7260567255880453e-17  0.0000000000000000e+00  -6.5325900797045205e-06  -1.6629013783261194e-05  -4.8911494758138560e-06  2.6539039553442811e-05  4.3995590227598648e-06  -1.0320273693337844e-06  -2.8294504228993927e-05  0.0000000000000000e+00  2.6865970134512021e-05  -1.7585647342400606e-05  -1.4067665184725883e-05  -2.3404438099992802e-05  1.0510340388202739e-04  5.0720436032365707e-05  0.0000000000000000e+00  -9.7846153829782054e-05  -6.1593473055286110e-05  3.0047826020732342e-16  8.5726880754994597e-05  1.0336044809272369e-04  6.6693906145400312e-05  1.1242555769887980e-05  -1.3003473140356161e-05  -6.1673158119316554e-05  -9.8611998217791597e-05  -1.0479450988682379e-06  -2.4953836992296219e-06  -3.5193892572876558e-07  6.7104660041749403e-07  4.5029480931280092e-07  -1.2452889229040791e-06  -2.9551846195407699e-06  1.1753541073920830e-17  3.8213666851280304e-06  -6.1014217843624318e-06  -1.5550532460232113e-05  -4.0362203721267282e-06  2.4750515110057966e-05  4.0909952154799649e-06  0.0000000000000000e+00  -2.6459452869180042e-05  4.8384889936596878e-05  2.4386805418268781e-05  -1.6452403004832716e-05  -7.1409965689284287e-06  -2.1762963922689852e-05  9.8090697112660015e-05  4.6714207623989067e-05  -3.4499566553780523e-05  -9.1742203364824956e-05  -5.0827485842562246e-05  2.8042975700405128e-16  8.0335142436795752e-05  9.6111245792980372e-05  5.9278706349373425e-05  9.2774577545786908e-06  -1.0015216075380465e-05  -4.7500386854272584e-05  1.4156417962342284e-07  -9.8041401364562617e-07  -2.3288867684603896e-06  -1.7865044611882004e-07  5.1683705017032245e-07  3.7158731128511033e-07  -1.0276235769655878e-06  -2.2760697998051289e-06  5.9663060912736308e-18  3.5663975496744184e-06  -5.7082374134026641e-06  -1.4459893267454818e-05  -3.1086786367287821e-06  2.3089871861990249e-05  3.7678619277390964e-06  -5.7364814576301270e-05  -2.4603714720510841e-05  4.5156554481597504e-05  2.1675417751619638e-05  -1.5417639451949821e-05  0.0000000000000000e+00  -2.0043984135885179e-05  9.1480148562047794e-05  4.2403467505213965e-05  -3.2197687309379498e-05  -8.5792226165209249e-05  -3.9147099223958534e-05  2.6153097681103734e-16  7.5356369032189072e-05  8.8519757363846900e-05  5.1124402691630570e-05  7.1454559131557305e-06  -6.8198369011350258e-06  2.6346069520559588e-18  1.3038252421229841e-07  -9.1875149007638649e-07  -2.1719379496126253e-06  0.0000000000000000e+00  3.5193892574019576e-07  2.8619486295859799e-07  -7.9147102134775020e-07  -1.5498841655975309e-06  0.0000000000000000e+00  3.3260501482706984e-06  -5.3492214067526577e-06  -1.3317757282006947e-05  -2.1168471175223935e-06  2.1565878994087553e-05  3.4201674167961481e-06  -5.3537320806886616e-05  -2.2660354044313049e-05  4.2113354621001965e-05  1.8693774778282304e-05  -1.4462130680361165e-05  -1.0510340388164667e-04  -1.8194345429602578e-05  8.5342260507343775e-05  3.7688941069920140e-05  -3.0027814105892870e-05  -7.9775174046210984e-05  -2.6657121508964019e-05  2.4398347733999356e-16  7.0655401995797456e-05  8.0351243141278409e-05  4.2188315175633554e-05  4.8656807347136249e-06  1.3254087844037117e-17  1.3373732569022033e-18  1.1835095594867461e-07  -8.6181183271741794e-07  -2.0262111202837063e-06  2.4953836993106660e-06  1.7865044612462222e-07  1.9488369223688288e-07  -5.3895025698298409e-07  -7.8674871511623412e-07  1.0989280809335231e-05  3.1028878141980715e-06  -5.0177032135006049e-06  -1.2088808028072150e-05  -1.0745491739159556e-06  2.0176142820099898e-05  3.0399044183129851e-06  -4.9929322608472870e-05  -2.0569279353059909e-05  3.9287746438955349e-05  1.5426270443206418e-05  -1.3559937534944020e-05  -9.8090697112304708e-05  -1.6171451370521642e-05  7.9709444651055361e-05  3.2504498140082934e-05  -2.8013088896035746e-05  -7.3474014325439267e-05  -1.3531628079953448e-05  2.2787991983327817e-16  6.6073017711512177e-05  7.1417585537647310e-05  3.2493249132719780e-05  -9.0722260552946774e-08  1.2420480314262334e-17  0.0000000000000000e+00  1.0519239266859112e-07  -8.0804930316339631e-07  -1.8924758048764021e-06  2.3288867685360263e-06  0.0000000000000000e+00  9.8926421643493352e-08  -2.7358071758185494e-07  0.0000000000000000e+00  1.0256054281214363e-05  2.8980889774178464e-06  -4.7046831236527667e-06  -1.0744743300051250e-05  0.0000000000000000e+00  1.8907176990496363e-05  2.6217390222710680e-06  -4.6579299705852118e-05  -1.8282334040084729e-05  3.6694650828602462e-05  1.1881243576878399e-05  -1.2680502376402098e-05  -9.1480148561716421e-05  -1.3946927031470355e-05  7.4572853711710473e-05  2.6823003105405609e-05  -2.6164150628181588e-05  -6.6693906145300105e-05  0.0000000000000000e+00  2.1319501095455646e-16  6.1438975572728209e-05  6.1593473055426175e-05  -2.1113267650376134e-07  -7.4864822279483410e-08  1.1650720590368868e-17  2.7839565398182099e-07  9.0722260556585575e-08  -7.5564294323689197e-07  -1.7705219496612178e-06  2.1719379496831645e-06  1.3818010833743122e-06  0.0000000000000000e+00  0.0000000000000000e+00  8.3337172048686001e-17  9.5648761495530739e-06  2.7113319670285795e-06  -4.3995590227432451e-06  -9.2667100400686458e-06  1.5009268383641450e-05  1.7735404001725776e-05  2.1634825319521298e-06  -4.3504942214051716e-05  -1.5767439358400851e-05  3.4329994898633837e-05  8.0905037661796694e-06  -1.1791153223170381e-05  -8.5342260507034642e-05  -1.1509129150795135e-05  6.9882640918316147e-05  2.0658955418419887e-05  -2.4478095234862607e-05  -5.9278706349284365e-05  -1.2082395299406609e-04  1.9978624465291387e-16  5.6586127518268328e-05  5.0516853426502168e-19  -1.9752698400550734e-07  -5.7660546800148764e-08  1.0923912038564339e-17  2.5982054589652887e-07  7.4864822282486181e-08  -7.0264579913604997e-07  -1.6591660837399636e-06  2.0262111203495128e-06  1.2896045849414462e-06  -3.8213666851033140e-06  -1.0989280809213055e-05  7.7776751272763922e-17  8.9231179103516408e-06  2.5408044460078907e-06  -4.0909952154645107e-06  -7.6469721547597600e-06  1.4007820341907639e-05  1.6629013783354357e-05  1.6663044402780479e-06  -4.0701421339308524e-05  -1.3011432234763355e-05  3.2170831432887984e-05