<?xml version="1.0"?>
<VTKFile type="UnstructuredGrid"  version="0.1"  >
<UnstructuredGrid>
<Piece  NumberOfPoints="1089" NumberOfCells="2048">
<Points>
<DataArray  type="Float64"  NumberOfComponents="3"  format="ascii">0 0 0  0.03125 0 0  0.0625 0 0  0.09375 0 0  0.125 0 0  0.15625 0 0  0.1875 0 0  0.21875 0 0  0.25 0 0  0.28125 0 0  0.3125 0 0  0.34375 0 0  0.375 0 0  0.40625 0 0  0.4375 0 0  0.46875 0 0  0.5 0 0  0.53125 0 0  0.5625 0 0  0.59375 0 0  0.625 0 0  0.65625 0 0  0.6875 0 0  0.71875 0 0  0.75 0 0  0.78125 0 0  0.8125 0 0  0.84375 0 0  0.875 0 0  0.90625 0 0  0.9375 0 0  0.96875 0 0  1 0 0  0 0.03125 0  0.03125 0.03125 0  0.0625 0.03125 0  0.09375 0.03125 0  0.125 0.03125 0  0.15625 0.03125 0  0.1875 0.03125 0  0.21875 0.03125 0  0.25 0.03125 0  0.28125 0.03125 0  0.3125 0.03125 0  0.34375 0.03125 0  0.375 0.03125 0  0.40625 0.03125 0  0.4375 0.03125 0  0.46875 0.03125 0  0.5 0.03125 0  0.53125 0.03125 0  0.5625 0.03125 0  0.59375 0.03125 0  0.625 0.03125 0  0.65625 0.03125 0  0.6875 0.03125 0  0.71875 0.03125 0  0.75 0.03125 0  0.78125 0.03125 0  0.8125 0.03125 0  0.84375 0.03125 0  0.875 0.03125 0  0.90625 0.03125 0  0.9375 0.03125 0  0.96875 0.03125 0  1 0.03125 0  0 0.0625 0  0.03125 0.0625 0  0.0625 0.0625 0  0.09375 0.0625 0  0.125 0.0625 0  0.15625 0.0625 0  0.1875 0.0625 0  0.21875 0.0625 0  0.25 0.0625 0  0.28125 0.0625 0  0.3125 0.0625 0  0.34375 0.0625 0  0.375 0.0625 0  0.40625 0.0625 0  0.4375 0.0625 0  0.46875 0.0625 0  0.5 0.0625 0  0.53125 0.0625 0  0.5625 0.0625 0  0.59375 0.0625 0  0.625 0.0625 0  0.65625 0.0625 0  0.6875 0.0625 0  0.71875 0.0625 0  0.75 0.0625 0  0.78125 0.0625 0  0.8125 0.0625 0  0.84375 0.0625 0  0.875 0.0625 0  0.90625 0.0625 0  0.9375 0.0625 0  0.96875 0.0625 0  1 0.0625 0  0 0.09375 0  0.03125 0.09375 0  0.0625 0.09375 0  0.09375 0.09375 0  0.125 0.09375 0  0.15625 0.09375 0  0.1875 0.09375 0  0.21875 0.09375 0  0.25 0.09375 0  0.28125 0.09375 0  0.3125 0.09375 0  0.34375 0.09375 0  0.375 0.09375 0  0.40625 0.09375 0  0.4375 0.09375 0  0.46875 0.09375 0  0.5 0.09375 0  0.53125 0.09375 0  0.5625 0.09375 0  0.59375 0.09375 0  0.625 0.09375 0  0.65625 0.09375 0  0.6875 0.09375 0  0.71875 0.09375 0  0.75 0.09375 0  0.78125 0.09375 0  0.8125 0.09375 0  0.84375 0.09375 0  0.875 0.09375 0  0.90625 0.09375 0  0.9375 0.09375 0  0.96875 0.09375 0  1 0.09375 0  0 0.125 0  0.03125 0.125 0  0.0625 0.125 0  0.09375 0.125 0  0.125 0.125 0  0.15625 0.125 0  0.1875 0.125 0  0.21875 0.125 0  0.25 0.125 0  0.28125 0.125 0  0.3125 0.125 0  0.34375 0.125 0  0.375 0.125 0  0.40625 0.125 0  0.4375 0.125 0  0.46875 0.125 0  0.5 0.125 0  0.53125 0.125 0  0.5625 0.125 0  0.59375 0.125 0  0.625 0.125 0  0.65625 0.125 0  0.6875 0.125 0  0.71875 0.125 0  0.75 0.125 0  0.78125 0.125 0  0.8125 0.125 0  0.84375 0.125 0  0.875 0.125 0  0.90625 0.125 0  0.9375 0.125 0  0.96875 0.125 0  1 0.125 0  0 0.15625 0  0.03125 0.15625 0  0.0625 0.15625 0  0.09375 0.15625 0  0.125 0.15625 0  0.15625 0.15625 0  0.1875 0.15625 0  0.21875 0.15625 0  0.25 0.15625 0  0.28125 0.15625 0  0.3125 0.15625 0  0.34375 0.15625 0  0.375 0.15625 0  0.40625 0.15625 0  0.4375 0.15625 0  0.46875 0.15625 0  0.5 0.15625 0  0.53125 0.15625 0  0.5625 0.15625 0  0.59375 0.15625 0  0.625 0.15625 0  0.65625 0.15625 0  0.6875 0.15625 0  0.71875 0.15625 0  0.75 0.15625 0  0.78125 0.15625 0  0.8125 0.15625 0  0.84375 0.15625 0  0.875 0.15625 0  0.90625 0.15625 0  0.9375 0.15625 0  0.96875 0.15625 0  1 0.15625 0  0 0.1875 0  0.03125 0.1875 0  0.0625 0.1875 0  0.09375 0.1875 0  0.125 0.1875 0  0.15625 0.1875 0  0.1875 0.1875 0  0.21875 0.1875 0  0.25 0.1875 0  0.28125 0.1875 0  0.3125 0.1875 0  0.34375 0.1875 0  0.375 0.1875 0  0.40625 0.1875 0  0.4375 0.1875 0  0.46875 0.1875 0  0.5 0.1875 0  0.53125 0.1875 0  0.5625 0.1875 0  0.59375 0.1875 0  0.625 0.1875 0  0.65625 0.1875 0  0.6875 0.1875 0  0.71875 0.1875 0  0.75 0.1875 0  0.78125 0.1875 0  0.8125 0.1875 0  0.84375 0.1875 0  0.875 0.1875 0  0.90625 0.1875 0  0.9375 0.1875 0  0.96875 0.1875 0  1 0.1875 0  0 0.21875 0  0.03125 0.21875 0  0.0625 0.21875 0  0.09375 0.21875 0  0.125 0.21875 0  0.15625 0.21875 0  0.1875 0.21875 0  0.21875 0.21875 0  0.25 0.21875 0  0.28125 0.21875 0  0.3125 0.21875 0  0.34375 0.21875 0  0.375 0.21875 0  0.40625 0.21875 0  0.4375 0.21875 0  0.46875 0.21875 0  0.5 0.21875 0  0.53125 0.21875 0  0.5625 0.21875 0  0.59375 0.21875 0  0.625 0.21875 0  0.65625 0.21875 0  0.6875 0.21875 0  0.71875 0.21875 0  0.75 0.21875 0  0.78125 0.21875 0  0.8125 0.21875 0  0.84375 0.21875 0  0.875 0.21875 0  0.90625 0.21875 0  0.9375 0.21875 0  0.96875 0.21875 0  1 0.21875 0  0 0.25 0  0.03125 0.25 0  0.0625 0.25 0  0.09375 0.25 0  0.125 0.25 0  0.15625 0.25 0  0.1875 0.25 0  0.21875 0.25 0  0.25 0.25 0  0.28125 0.25 0  0.3125 0.25 0  0.34375 0.25 0  0.375 0.25 0  0.40625 0.25 0  0.4375 0.25 0  0.46875 0.25 0  0.5 0.25 0  0.53125 0.25 0  0.5625 0.25 0  0.59375 0.25 0  0.625 0.25 0  0.65625 0.25 0  0.6875 0.25 0  0.71875 0.25 0  0.75 0.25 0  0.78125 0.25 0  0.8125 0.25 0  0.84375 0.25 0  0.875 0.25 0  0.90625 0.25 0  0.9375 0.25 0  0.96875 0.25 0  1 0.25 0  0 0.28125 0  0.03125 0.28125 0  0.0625 0.28125 0  0.09375 0.28125 0  0.125 0.28125 0  0.15625 0.28125 0  0.1875 0.28125 0  0.21875 0.28125 0  0.25 0.28125 0  0.28125 0.28125 0  0.3125 0.28125 0  0.34375 0.28125 0  0.375 0.28125 0  0.40625 0.28125 0  0.4375 0.28125 0  0.46875 0.28125 0  0.5 0.28125 0  0.53125 0.28125 0  0.5625 0.28125 0  0.59375 0.28125 0  0.625 0.28125 0  0.65625 0.28125 0  0.6875 0.28125 0  0.71875 0.28125 0  0.75 0.28125 0  0.78125 0.28125 0  0.8125 0.28125 0  0.84375 0.28125 0  0.875 0.28125 0  0.90625 0.28125 0  0.9375 0.28125 0  0.96875 0.28125 0  1 0.28125 0  0 0.3125 0  0.03125 0.3125 0  0.0625 0.3125 0  0.09375 0.3125 0  0.125 0.3125 0  0.15625 0.3125 0  0.1875 0.3125 0  0.21875 0.3125 0  0.25 0.3125 0  0.28125 0.3125 0  0.3125 0.3125 0  0.34375 0.3125 0  0.375 0.3125 0  0.40625 0.3125 0  0.4375 0.3125 0  0.46875 0.3125 0  0.5 0.3125 0  0.53125 0.3125 0  0.5625 0.3125 0  0.59375 0.3125 0  0.625 0.3125 0  0.65625 0.3125 0  0.6875 0.3125 0  0.71875 0.3125 0  0.75 0.3125 0  0.78125 0.3125 0  0.8125 0.3125 0  0.84375 0.3125 0  0.875 0.3125 0  0.90625 0.3125 0  0.9375 0.3125 0  0.96875 0.3125 0  1 0.3125 0  0 0.34375 0  0.03125 0.34375 0  0.0625 0.34375 0  0.09375 0.34375 0  0.125 0.34375 0  0.15625 0.34375 0  0.1875 0.34375 0  0.21875 0.34375 0  0.25 0.34375 0  0.28125 0.34375 0  0.3125 0.34375 0  0.34375 0.34375 0  0.375 0.34375 0  0.40625 0.34375 0  0.4375 0.34375 0  0.46875 0.34375 0  0.5 0.34375 0  0.53125 0.34375 0  0.5625 0.34375 0  0.59375 0.34375 0  0.625 0.34375 0  0.65625 0.34375 0  0.6875 0.34375 0  0.71875 0.34375 0  0.75 0.34375 0  0.78125 0.34375 0  0.8125 0.34375 0  0.84375 0.34375 0  0.875 0.34375 0  0.90625 0.34375 0  0.9375 0.34375 0  0.96875 0.34375 0  1 0.34375 0  0 0.375 0  0.03125 0.375 0  0.0625 0.375 0  0.09375 0.375 0  0.125 0.375 0  0.15625 0.375 0  0.1875 0.375 0  0.21875 0.375 0  0.25 0.375 0  0.28125 0.375 0  0.3125 0.375 0  0.34375 0.375 0  0.375 0.375 0  0.40625 0.375 0  0.4375 0.375 0  0.46875 0.375 0  0.5 0.375 0  0.53125 0.375 0  0.5625 0.375 0  0.59375 0.375 0  0.625 0.375 0  0.65625 0.375 0  0.6875 0.375 0  0.71875 0.375 0  0.75 0.375 0  0.78125 0.375 0  0.8125 0.375 0  0.84375 0.375 0  0.875 0.375 0  0.90625 0.375 0  0.9375 0.375 0  0.96875 0.375 0  1 0.375 0  0 0.40625 0  0.03125 0.40625 0  0.0625 0.40625 0  0.09375 0.40625 0  0.125 0.40625 0  0.15625 0.40625 0  0.1875 0.40625 0  0.21875 0.40625 0  0.25 0.40625 0  0.28125 0.40625 0  0.3125 0.40625 0  0.34375 0.40625 0  0.375 0.40625 0  0.40625 0.40625 0  0.4375 0.40625 0  0.46875 0.40625 0  0.5 0.40625 0  0.53125 0.40625 0  0.5625 0.40625 0  0.59375 0.40625 0  0.625 0.40625 0  0.65625 0.40625 0  0.6875 0.40625 0  0.71875 0.40625 0  0.75 0.40625 0  0.78125 0.40625 0  0.8125 0.40625 0  0.84375 0.40625 0  0.875 0.40625 0  0.90625 0.40625 0  0.9375 0.40625 0  0.96875 0.40625 0  1 0.40625 0  0 0.4375 0  0.03125 0.4375 0  0.0625 0.4375 0  0.09375 0.4375 0  0.125 0.4375 0  0.15625 0.4375 0  0.1875 0.4375 0  0.21875 0.4375 0  0.25 0.4375 0  0.28125 0.4375 0  0.3125 0.4375 0  0.34375 0.4375 0  0.375 0.4375 0  0.40625 0.4375 0  0.4375 0.4375 0  0.46875 0.4375 0  0.5 0.4375 0  0.53125 0.4375 0  0.5625 0.4375 0  0.59375 0.4375 0  0.625 0.4375 0  0.65625 0.4375 0  0.6875 0.4375 0  0.71875 0.4375 0  0.75 0.4375 0  0.78125 0.4375 0  0.8125 0.4375 0  0.84375 0.4375 0  0.875 0.4375 0  0.90625 0.4375 0  0.9375 0.4375 0  0.96875 0.4375 0  1 0.4375 0  0 0.46875 0  0.03125 0.46875 0  0.0625 0.46875 0  0.09375 0.46875 0  0.125 0.46875 0  0.15625 0.46875 0  0.1875 0.46875 0  0.21875 0.46875 0  0.25 0.46875 0  0.28125 0.46875 0  0.3125 0.46875 0  0.34375 0.46875 0  0.375 0.46875 0  0.40625 0.46875 0  0.4375 0.46875 0  0.46875 0.46875 0  0.5 0.46875 0  0.53125 0.46875 0  0.5625 0.46875 0  0.59375 0.46875 0  0.625 0.46875 0  0.65625 0.46875 0  0.6875 0.46875 0  0.71875 0.46875 0  0.75 0.46875 0  0.78125 0.46875 0  0.8125 0.46875 0  0.84375 0.46875 0  0.875 0.46875 0  0.90625 0.46875 0  0.9375 0.46875 0  0.96875 0.46875 0  1 0.46875 0  0 0.5 0  0.03125 0.5 0  0.0625 0.5 0  0.09375 0.5 0  0.125 0.5 0  0.15625 0.5 0  0.1875 0.5 0  0.21875 0.5 0  0.25 0.5 0  0.28125 0.5 0  0.3125 0.5 0  0.34375 0.5 0  0.375 0.5 0  0.40625 0.5 0  0.4375 0.5 0  0.46875 0.5 0  0.5 0.5 0  0.53125 0.5 0  0.5625 0.5 0  0.59375 0.5 0  0.625 0.5 0  0.65625 0.5 0  0.6875 0.5 0  0.71875 0.5 0  0.75 0.5 0  0.78125 0.5 0  0.8125 0.5 0  0.84375 0.5 0  0.875 0.5 0  0.90625 0.5 0  0.9375 0.5 0  0.96875 0.5 0  1 0.5 0  0 0.53125 0  0.03125 0.53125 0  0.0625 0.53125 0  0.09375 0.53125 0  0.125 0.53125 0  0.15625 0.53125 0  0.1875 0.53125 0  0.21875 0.53125 0  0.25 0.53125 0  0.28125 0.53125 0  0.3125 0.53125 0  0.34375 0.53125 0  0.375 0.53125 0  0.40625 0.53125 0  0.4375 0.53125 0  0.46875 0.53125 0  0.5 0.53125 0  0.53125 0.53125 0  0.5625 0.53125 0  0.59375 0.53125 0  0.625 0.53125 0  0.65625 0.53125 0  0.6875 0.53125 0  0.71875 0.53125 0  0.75 0.53125 0  0.78125 0.531
[...]
<PointData  Scalars="phi"> 
<DataArray  type="Float64"  Name="phi"  format="ascii">0.0000000000000000e+00  0.0000000000000000e+00  0.0000000000000000e+00  0.0000000000000000e+00  0.0000000000000000e+00  0.0000000000000000e+00  0.0000000000000000e+00  0.0000000000000000e+00  0.0000000000000000e+00  0.0000000000000000e+00  0.0000000000000000e+00  0.0000000000000000e+00  0.0000000000000000e+00  0.0000000000000000e+00  0.0000000000000000e+00  0.0000000000000000e+00  0.0000000000000000e+00  0.0000000000000000e+00  0.0000000000000000e+00  0.0000000000000000e+00  0.0000000000000000e+00  0.0000000000000000e+00  0.0000000000000000e+00  0.0000000000000000e+00  0.0000000000000000e+00  0.0000000000000000e+00  0.0000000000000000e+00  0.0000000000000000e+00  0.0000000000000000e+00  0.0000000000000000e+00  0.0000000000000000e+00  0.0000000000000000e+00  0.0000000000000000e+00  0.0000000000000000e+00  9.7196581042164330e-05  1.9331195476393116e-04  2.8747859457559625e-04  3.7881768252088637e-04  4.6646526033918961e-04  5.4958717415868425e-04  6.2738982067178119e-04  6.9912904857685602e-04  7.6411797666230022e-04  8.2173397878446282e-04  8.7142490721916393e-04  9.1271455935143498e-04  9.4520736797089539e-04  9.6859228791649045e-04  9.8264585203966092e-04  9.8723437350097150e-04  9.8231527750414042e-04  9.6793755283565907e-04  9.4424132156932495e-04  9.1145653378389268e-04  8.6990080304587204e-04  8.1997640779219306e-04  7.6216649389269009e-04  6.9703052528228735e-04  6.2519904423327102e-04  5.4736782432120580e-04  4.6429153656898442e-04  3.7677712671698523e-04  2.8567728795660200e-04  1.9188492363479906e-04  9.6331057372993058e-05  0.0000000000000000e+00  0.0000000000000000e+00  1.9331195476393116e-04  3.8456543997924337e-04  5.7197377172175392e-04  7.5376923868429276e-04  9.2822550364183242e-04  1.0936794340223105e-03  1.2485500378656923e-03  1.3913553365053268e-03  1.5207276020746930e-03  1.6354271235738144e-03  1.7343545309473853e-03  1.8165616452232639e-03  1.8812607984509263e-03  1.9278325616875838e-03  1.9558318236482537e-03  1.9649921724245937e-03  1.9552285456038189e-03  1.9266381289548648e-03  1.8794994999056314e-03  1.8142700289311892e-03  1.7315815695436395e-03  1.6322344858728992e-03  1.5171900862161083e-03  1.3875615523153851e-03  1.2446034794539465e-03  1.0897001758380859e-03  9.2435291973347756e-04  7.5016645727576112e-04  5.6883517812585853e-04  3.8212968799626048e-04  1.9188492363479906e-04  0.0000000000000000e+00  0.0000000000000000e+00  2.8747859457559625e-04  5.7197377172175392e-04  8.5078843372018704e-04  1.1212744071817968e-03  1.3808542753373700e-03  1.6270488918158645e-03  1.8575033040992156e-03  2.0700108429815883e-03  2.2625353226392963e-03  2.4332312943296268e-03  2.5804622673558987e-03  2.7028167918065433e-03  2.7991222924688623e-03  2.8684565489472142e-03  2.9101567298948331e-03  2.9238259068981001e-03  2.9093369942980942e-03  2.8668340840453509e-03  2.7967311688781729e-03  2.6997082722566260e-03  2.5767050293294012e-03  2.4289117897083215e-03  2.2577583401757468e-03  2.0649003742315066e-03  1.8522038667696118e-03  1.6217275482148796e-03  1.3757037162201225e-03  1.1165176775064598e-03  8.4668617389824035e-04  5.6883517812585853e-04  2.8567728795660200e-04  0.0000000000000000e+00  0.0000000000000000e+00  3.7881768252088631e-04  7.5376923868429276e-04  1.1212744071817970e-03  1.4778274696679548e-03  1.8200219310085851e-03  2.1445843195036312e-03  2.4484068372422722e-03  2.7285782558310258e-03  2.9824127081816689e-03  3.2074761268119810e-03  3.4016101175209632e-03  3.5629530772204581e-03  3.6899583822681955e-03  3.7814094938145382e-03  3.8364318503371943e-03  3.8545014443127691e-03  3.8354500091963596e-03  3.7794667739116058e-03  3.6870967743567289e-03  3.5592357445796588e-03  3.3971216439468458e-03  3.2023229106148388e-03  2.9767235658191525e-03  2.7225053279469288e-03  2.4421269301351323e-03  2.1383008700690456e-03  1.8139678543809411e-03  1.4722692272715080e-03  1.1165176775064600e-03  7.5016645727576123e-04  3.7677712671698523e-04  0.0000000000000000e+00  0.0000000000000000e+00  4.6646526033918955e-04  9.2822550364183242e-04  1.3808542753373700e-03  1.8200219310085849e-03  2.2415245845346134e-03  2.6413247010980833e-03  3.0155904481436275e-03  3.3607331505079840e-03  3.6734423688068443e-03  3.9507182248718882e-03  4.1899006606673193e-03  4.3886953596359943e-03  4.5451960944063339e-03  4.6579032982462607e-03  4.7257386920382871e-03  4.7480558346282807e-03  4.7246465021804369e-03  4.6557428413647765e-03  4.5420152814220028e-03  4.3845662309867119e-03  4.1849196266102303e-03  3.9450064408327722e-03  3.6671462980298196e-03  3.3540253856393998e-03  3.0086708860398844e-03  2.6344221888707146e-03  2.2348991719233656e-03  1.8139678543809411e-03  1.3757037162201225e-03  9.2435291973347756e-04  4.6429153656898448e-04  0.0000000000000000e+00  0.0000000000000000e+00  5.4958717415868425e-04  1.0936794340223107e-03  1.6270488918158649e-03  2.1445843195036316e-03  2.6413247010980837e-03  3.1125067225284461e-03  3.5536107186876372e-03  3.9604044472652308e-03  4.3289841545523528e-03  4.6558124796847681e-03  4.9377528074092437e-03  5.1720997311748822e-03  5.3566053340718990e-03  5.4895010387916148e-03  5.5695148214842350e-03  5.5958836290735305e-03  5.5683608854895702e-03  5.4872190192736779e-03  5.3532469927776724e-03  5.1677428613121721e-03  4.9325014386332709e-03  4.6497971925829554e-03  4.3223625409266261e-03  3.9533617617101575e-03  3.5463607737076753e-03  3.1052930790306070e-03  2.6344221888707146e-03  2.1383008700690456e-03  1.6217275482148801e-03  1.0897001758380861e-03  5.4736782432120590e-04  0.0000000000000000e+00  0.0000000000000000e+00  6.2738982067178119e-04  1.2485500378656923e-03  1.8575033040992158e-03  2.4484068372422731e-03  3.0155904481436275e-03  3.5536107186876372e-03  4.0573032908599489e-03  4.5218326513900000e-03  4.9427388481277333e-03  5.3159806337884233e-03  5.6379745902285679e-03  5.9056298403897013e-03  6.1163780066888556e-03  6.2681981255187681e-03  6.3596362787705016e-03  6.3898197554798529e-03  6.3584656099694124e-03  6.2658835370630554e-03  6.1129730397580864e-03  5.9012149197060736e-03  5.6326571754483305e-03  5.3098954469722069e-03  4.9360481970966491e-03  4.5147268696020398e-03  4.0500013097805043e-03  3.5463607737076753e-03  3.0086708860398844e-03  2.4421269301351323e-03  1.8522038667696120e-03  1.2446034794539468e-03  6.2519904423327113e-04  0.0000000000000000e+00  0.0000000000000000e+00  6.9912904857685602e-04  1.3913553365053270e-03  2.0700108429815883e-03  2.7285782558310258e-03  3.3607331505079840e-03  3.9604044472652308e-03  4.5218326513900000e-03  5.0396252543372039e-03  5.5088087060395372e-03  5.9248764149524057e-03  6.2838322842708530e-03  6.5822293466894551e-03  6.8172031150525638e-03  6.9864993222490688e-03  7.0884957809384625e-03  7.1222181522411464e-03  7.0873494722866071e-03  6.9842333462170648e-03  6.8138707804845690e-03  6.5779106855483275e-03  6.2786341417876302e-03  5.9189325809311001e-03  5.5022800928185289e-03  5.0327001220048751e-03  4.5147268696020407e-03  3.9533617617101583e-03  3.3540253856394007e-03  2.7225053279469292e-03  2.0649003742315070e-03  1.3875615523153853e-03  6.9703052528228746e-04  0.0000000000000000e+00  0.0000000000000000e+00  7.6411797666230022e-04  1.5207276020746930e-03  2.2625353226392963e-03  2.9824127081816694e-03  3.6734423688068443e-03  4.3289841545523528e-03  4.9427388481277333e-03  5.5088087060395372e-03  6.0217542301312012e-03  6.4766465919529129e-03  6.8691151811200992e-03  7.1953898026618172e-03  7.4523371056085088e-03  7.6374908849146887e-03  7.7490759608329378e-03  7.7860254037278196e-03  7.7479909376886955e-03  7.6353464227405755e-03  7.4491843824530685e-03  7.1913056107281922e-03  6.8642019578643116e-03  6.4710324609458464e-03  6.0155930464429151e-03  5.5022800928185281e-03  4.9360481970966499e-03  4.3223625409266261e-03  3.6671462980298200e-03  2.9767235658191525e-03  2.2577583401757473e-03  1.5171900862161085e-03  7.6216649389269019e-04  0.0000000000000000e+00  0.0000000000000000e+00  8.2173397878446282e-04  1.6354271235738144e-03  2.4332312943296268e-03  3.2074761268119810e-03  3.9507182248718891e-03  4.6558124796847681e-03  5.3159806337884242e-03  5.9248764149524066e-03  6.4766465919529137e-03  6.9659873433328525e-03  7.3881953781390211e-03  7.7392133020213688e-03  8.0156687812926175e-03  8.2149071204946286e-03  8.3350169349503331e-03  8.3748486680985078e-03  8.3340257735562469e-03  8.2129484532586974e-03  8.0127899150774628e-03  7.7354851853654750e-03  7.3837125832238639e-03  6.9608680332090148e-03  6.4710324609458473e-03  5.9189325809311001e-03  5.3098954469722077e-03  4.6497971925829563e-03  3.9450064408327731e-03  3.2023229106148392e-03  2.4289117897083219e-03  1.6322344858728994e-03  8.1997640779219317e-04  0.0000000000000000e+00  0.0000000000000000e+00  8.7142490721916403e-04  1.7343545309473855e-03  2.5804622673558991e-03  3.4016101175209645e-03  4.1899006606673202e-03  4.9377528074092455e-03  5.6379745902285696e-03  6.2838322842708539e-03  6.8691151811201001e-03  7.3881953781390220e-03  7.8360819945403545e-03  8.2084692809027103e-03  8.5017781499603599e-03  8.7131907220783875e-03  8.8406775479926755e-03  8.8830172433970300e-03  8.8398083441035870e-03  8.7114732661052446e-03  8.4992543312362619e-03  8.2052018955445141e-03  7.8321546932203674e-03  7.3837125832238630e-03  6.8642019578643125e-03  6.2786341417876311e-03  5.6326571754483313e-03  4.9325014386332709e-03  4.1849196266102303e-03  3.3971216439468458e-03  2.5767050293294012e-03  1.7315815695436397e-03  8.6990080304587215e-04  0.0000000000000000e+00  0.0000000000000000e+00  9.1271455935143520e-04  1.8165616452232645e-03  2.7028167918065438e-03  3.5629530772204590e-03  4.3886953596359952e-03  5.1720997311748840e-03  5.9056298403897031e-03  6.5822293466894560e-03  7.1953898026618189e-03  7.7392133020213706e-03  8.2084692809027120e-03  8.5986449172484030e-03  8.9059886359799684e-03  9.1275462954690523e-03  9.2611897026450042e-03  9.3056371790669907e-03  9.2604659776810341e-03  9.1261164290196983e-03  8.9038877755285902e-03  8.5959257327555515e-03  8.2052018955445141e-03  7.7354851853654750e-03  7.1913056107281940e-03  6.5779106855483275e-03  5.9012149197060736e-03  5.1677428613121730e-03  4.3845662309867110e-03  3.5592357445796588e-03  2.6997082722566260e-03  1.8142700289311895e-03  9.1145653378389290e-04  0.0000000000000000e+00  0.0000000000000000e+00  9.4520736797089561e-04  1.8812607984509270e-03  2.7991222924688636e-03  3.6899583822681964e-03  4.5451960944063357e-03  5.3566053340719007e-03  6.1163780066888582e-03  6.8172031150525655e-03  7.4523371056085105e-03  8.0156687812926192e-03  8.5017781499603616e-03  8.9059886359799702e-03  9.2244121471276794e-03  9.4539865585897588e-03  9.5925052497783537e-03  9.6386384069748494e-03  9.5919458847185841e-03  9.4528815005634481e-03  9.2227887205341037e-03  8.9038877755285920e-03  8.4992543312362636e-03  8.0127899150774628e-03  7.4491843824530685e-03  6.8138707804845690e-03  6.1129730397580864e-03  5.3532469927776733e-03  4.5420152814220020e-03  3.6870967743567289e-03  2.7967311688781729e-03  1.8794994999056316e-03  9.4424132156932506e-04  0.0000000000000000e+00  0.0000000000000000e+00  9.6859228791649067e-04  1.9278325616875844e-03  2.8684565489472151e-03  3.7814094938145399e-03  4.6579032982462625e-03  5.4895010387916174e-03  6.2681981255187707e-03  6.9864993222490705e-03  7.6374908849146904e-03  8.2149071204946304e-03  8.7131907220783910e-03  9.1275462954690557e-03  9.4539865585897605e-03  9.6893707659879025e-03  9.8314349861227321e-03  9.8788139380601801e-03  9.8310541758714516e-03  9.6886184926256204e-03  9.4528815005634516e-03  9.1261164290197001e-03  8.7114732661052463e-03  8.2129484532586974e-03  7.6353464227405746e-03  6.9842333462170657e-03  6.2658835370630562e-03  5.4872190192736779e-03  4.6557428413647756e-03  3.7794667739116058e-03  2.8668340840453509e-03  1.9266381289548651e-03  9.6793755283565907e-04  0.0000000000000000e+00  0.0000000000000000e+00  9.8264585203966135e-04  1.9558318236482541e-03  2.9101567298948344e-03  3.8364318503371960e-03  4.7257386920382897e-03  5.5695148214842376e-03  6.3596362787705051e-03  7.0884957809384651e-03  7.7490759608329404e-03  8.3350169349503365e-03  8.8406775479926807e-03  9.2611897026450077e-03  9.5925052497783572e-03  9.8314349861227338e-03  9.9756793826960167e-03  1.0023850747135242e-02  9.9754866057580500e-03  9.8310541758714516e-03  9.5919458847185841e-03  9.2604659776810358e-03  8.8398083441035870e-03  8.3340257735562469e-03  7.7479909376886955e-03  7.0873494722866071e-03  6.3584656099694124e-03  5.5683608854895702e-03  4.7246465021804369e-03  3.8354500091963596e-03  2.9093369942980942e-03  1.9552285456038193e-03  9.8231527750414042e-04  0.0000000000000000e+00  0.0000000000000000e+00  9.8723437350097172e-04  1.9649921724245946e-03  2.9238259068981019e-03  3.8545014443127712e-03  4.7480558346282842e-03  5.5958836290735331e-03  6.3898197554798563e-03  7.1222181522411498e-03  7.7860254037278240e-03  8.3748486680985113e-03  8.8830172433970334e-03  9.3056371790669942e-03  9.6386384069748528e-03  9.8788139380601818e-03  1.0023850747135243e-02  1.0072352048398349e-02  1.0023850747135243e-02  9.8788139380601818e-03  9.6386384069748511e-03  9.3056371790669907e-03  8.8830172433970282e-03  8.3748486680985060e-03  7.7860254037278188e-03  7.1222181522411455e-03  6.3898197554798529e-03  5.5958836290735297e-03  4.7480558346282807e-03  3.8545014443127695e-03  2.9238259068981001e-03  1.9649921724245937e-03  9.8723437350097150e-04  0.0000000000000000e+00  0.0000000000000000e+00  9.8231527750414086e-04  1.9552285456038202e-03  2.9093369942980959e-03  3.8354500091963622e-03  4.7246465021804395e-03  5.5683608854895745e-03  6.3584656099694176e-03  7.0873494722866123e-03  7.7479909376887007e-03  8.3340257735562522e-03  8.8398083441035922e-03  9.2604659776810375e-03  9.5919458847185859e-03  9.8310541758714533e-03  9.9754866057580518e-03  1.0023850747135243e-02  9.9756793826960167e-03  9.8314349861227321e-03  9.5925052497783537e-03  9.2611897026450025e-03  8.8406775479926737e-03  8.3350169349503331e-03  7.7490759608329369e-03  7.0884957809384617e-03  6.3596362787705016e-03  5.5695148214842350e-03  4.7257386920382871e-03  3.8364318503371943e-03  2.9101567298948331e-03  1.9558318236482537e-03  9.8264585203966092e-04  0.0000000000000000e+00  0.0000000000000000e+00  9.6793755283565961e-04  1.9266381289548659e-03  2.8668340840453527e-03  3.7794667739116088e-03  4.6557428413647800e-03  5.4872190192736823e-03  6.2658835370630606e-03  6.9842333462170718e-03  7.6353464227405824e-03  8.2129484532587026e-03  8.7114732661052498e-03  9.1261164290197035e-03  9.4528815005634533e-03  9.6886184926256239e-03  9.8310541758714533e-03  9.8788139380601818e-03  9.8314349861227338e-03  9.6893707659879008e-03  9.4539865585897571e-03  9.1275462954690488e-03  8.7131907220783858e-03  8.2149071204946269e-03  7.6374908849146887e-03  6.9864993222490679e-03  6.2681981255187681e-03  5.4895010387916157e-03  4.6579032982462616e-03  3.7814094938145386e-03  2.8684565489472142e-03  1.9278325616875838e-03  9.6859228791649034e-04  0.0000000000000000e+00  0.0000000000000000e+00  9.4424132156932560e-04  1.8794994999056329e-03  2.7967311688781751e-03  3.6870967743567323e-03  4.5420152814220072e-03  5.3532469927776776e-03  6.1129730397580925e-03  6.8138707804845759e-03  7.4491843824530755e-03  8.0127899150774697e-03  8.4992543312362671e-03  8.9038877755285954e-03  9.2227887205341089e-03  9.4528815005634551e-03  9.5919458847185876e-03  9.6386384069748528e-03  9.5925052497783554e-03  9.4539865585897588e-03  9.2244121471276759e-03  8.9059886359799650e-03  8.5017781499603564e-03  8.0156687812926175e-03  7.4523371056085088e-03  6.8172031150525638e-03  6.1163780066888556e-03  5.3566053340718990e-03  4.5451960944063339e-03  3.6899583822681955e-03  2.7991222924688627e-03  1.8812607984509265e-03  9.4520736797089528e-04  0.0000000000000000e+00  0.0000000000000000e+00  9.1145653378389355e-04  1.8142700289311910e-03  2.6997082722566281e-03  3.5592357445796618e-03  4.3845662309867153e-03  5.1677428613121773e-03  5.9012149197060788e-03  6.5779106855483336e-03  7.1913056107282000e-03  7.7354851853654819e-03  8.2052018955445193e-03  8.5959257327555584e-03  8.9038877755285972e-03  9.1261164290197053e-03  9.2604659776810393e-03  9.3056371790669924e-03  9.2611897026450042e-03  9.1275462954690505e-03  8.9059886359799650e-03  8.5986449172483995e-03  8.2084692809027086e-03  7.7392133020213688e-03  7.1953898026618172e-03  6.5822293466894551e-03  5.9056298403897013e-03  5.1720997311748822e-03  4.3886953596359943e-03  3.5629530772204581e-03  2.7028167918065433e-03  1.8165616452232639e-03  9.1271455935143487e-04  0.0000000000000000e+00  0.0000000000000000e+00  8.6990080304587280e-04  1.7315815695436412e-03  2.5767050293294034e-03  3.3971216439468489e-03  4.1849196266102338e-03  4.9325014386332753e-03  5.6326571754483365e-03  6.2786341417876354e-03  6.8642019578643186e-03  7.3837125832238700e-03  7.8321546932203744e-03  8.2052018955445210e-03  8.4992543312362688e-03  8.7114732661052498e-03  8.8398083441035905e-03  8.8830172433970317e-03  8.8406775479926755e-03  8.7131907220783875e-03  8.5017781499603581e-03  8.2084692809027103e-03  7.8360819945403545e-03  7.3881953781390211e-03  6.8691151811200992e-03  6.2838322842708547e-03  5.6379745902285687e-03  4.9377528074092437e-03  4.1899006606673193e-03  3.4016101175209632e-03  2.5804622673558982e-03  1.7343545309473850e-03  8.7142490721916382e-04  0.0000000000000000e+00  0.0000000000000000e+00  8.1997640779219382e-04  1.6322344858729007e-03  2.4289117897083241e-03  3.2023229106148418e-03  3.9450064408327766e-03  4.6497971925829606e-03  5.3098954469722130e-03  5.9189325809311053e-03  6.4710324609458525e-03  6.9608680332090209e-03  7.3837125832238700e-03  7.7354851853654819e-03  8.0127899150774697e-03  8.2129484532587026e-03  8.3340257735562504e-03  8.3748486680985095e-03  8.3350169349503348e-03  8.2149071204946286e-03  8.0156687812926175e-03  7.7392133020213697e-03  7.3881953781390220e-03  6.9659873433328525e-03  6.4766465919529129e-03  5.9248764149524066e-03  5.3159806337884233e-03  4.6558124796847681e-03  3.9507182248718882e-03  3.2074761268119805e-03  2.4332312943296259e-03  1.6354271235738140e-03  8.2173397878446261e-04  0.0000000000000000e+00  0.0000000000000000e+00  7.6216649389269084e-04  1.5171900862161098e-03  2.2577583401757494e-03  2.9767235658191555e-03  3.6671462980298239e-03  4.3223625409266313e-03  4.9360481970966543e-03  5.5022800928185341e-03  6.0155930464429212e-03  6.4710324609458525e-03  6.8642019578643186e-03  7.1913056107281992e-03  7.4491843824530746e-03  7.6353464227405798e-03  7.7479909376886990e-03  7.7860254037278222e-03  7.7490759608329386e-03  7.6374908849146904e-03  7.4523371056085114e-03  7.1953898026618189e-03  6.8691151811201001e-03  6.4766465919529137e-03  6.0217542301312012e-03  5.5088087060395372e-03  4.9427388481277324e-03  4.3289841545523511e-03  3.6734423688068434e-03  2.9824127081816681e-03  2.2625353226392950e-03  1.5207276020746925e-03  7.6411797666230000e-04  0.0000000000000000e+00  0.0000000000000000e+00  6.9703052528228811e-04  1.3875615523153866e-03  2.0649003742315092e-03  2.7225053279469318e-03  3.3540253856394042e-03  3.9533617617101618e-03  4.5147268696020450e-03  5.0327001220048795e-03  5.5022800928185341e-03  5.9189325809311053e-03  6.2786341417876363e-03  6.5779106855483336e-03  6.8138707804845759e-03  6.9842333462170701e-03  7.0873494722866115e-03  7.1222181522411481e-03  7.0884957809384634e-03  6.9864993222490696e-03  6.8172031150525655e-03  6.5822293466894560e-03  6.2838322842708539e-03  5.9248764149524066e-03  5.5088087060395363e-03  5.0396252543372039e-03  4.5218326513899983e-03  3.9604044472652290e-03  3.3607331505079827e-03  2.7285782558310245e-03  2.0700108429815870e-03  1.3913553365053264e-03  6.9912904857685580e-04  0.0000000000000000e+00  0.0000000000000000e+00  6.2519904423327167e-04  1.2446034794539478e-03  1.8522038667696139e-03  2.4421269301351349e-0